/*--------------------------------*- C++ -*----------------------------------*\
| =========                 |                                                 |
| \\      /  F ield         | OpenFOAM: The Open Source CFD Toolbox           |
|  \\    /   O peration     | Version:  4.1                                   |
|   \\  /    A nd           | Web:      www.OpenFOAM.org                      |
|    \\/     M anipulation  |                                                 |
\*---------------------------------------------------------------------------*/
FoamFile
{
    version     2.0;
    format      ascii;
    class       volScalarField;
    location    "1590";
    object      p;
}
// * * * * * * * * * * * * * * * * * * * * * * * * * * * * * * * * * * * * * //

dimensions      [0 2 -2 0 0 0 0];

internalField   nonuniform List<scalar> 
5497
(
-2.25656e-05
-5.85454
-2.21341
-16.2237
-2.69868
-1.19258
0.190784
-24.4101
-9.4798
-16.4714
-12.2926
-16.0414
-10.49
-11.6457
-13.0096
-0.68916
2.35884
-0.75878
2.94765
-3.24577
-0.380783
1.50375
-0.6323
-2.16075
-2.19342
1.49154
-1.364
-0.268084
0.240883
-0.54984
-2.88377
0.911355
-2.12281
-3.31182
0.729972
-7.0631
-2.40366
2.77733
-2.21778
-0.656956
2.59992
-0.539932
-0.313408
-0.833703
3.77718
-4.27041
-3.60432
-0.745373
-0.276623
-0.0642557
0.78134
-3.0747
-1.07902
-4.33492
-8.80745
4.35064
-4.16696
-1.74855
-6.78281
0.133936
4.78243
2.54495
-3.0213
2.26104
-2.78375
-1.99962
0.593499
-0.321348
-3.98689
-3.36519
-1.31704
-0.978861
0.226093
-0.43084
7.52138
2.12886
-3.46532
-0.105847
11.3768
-3.99533
-1.90906
11.2835
-0.495759
2.68831
-8.5173
-3.23101
-5.42
-1.15658
-4.43412
-4.04996
13.1023
-0.223438
-0.927691
-0.145941
-0.292606
-0.253718
-0.453383
-0.497454
-1.92088
-0.335784
20.6346
32.2547
-1.75918
-0.19694
-0.454965
18.1271
0.400838
15.6588
32.7529
-0.244607
0.191979
-0.809924
-1.19605
-0.2937
17.6431
-0.0988308
-0.367198
-0.175449
0.16258
0.0956288
-1.00303
-0.792874
-0.208428
-0.0795163
20.0491
-0.653759
-0.926451
0.436883
1.29032
0.509659
0.778657
-0.281293
-0.830411
-1.99833
-0.818952
-0.492165
-0.130799
-0.138358
-0.614938
-0.520232
-0.0121246
-0.622575
-0.0628667
0.0818486
-1.71992
-0.166615
-2.75439
0.931784
1.35969
1.76863
0.98605
-0.845667
-1.09511
-0.648053
1.0186
-0.111604
6.06155
7.17498
-0.0165242
0.782606
-0.716098
-0.665392
-0.683354
-0.406931
7.64941
1.76181
-3.70056
3.20865
0.0849472
0.435969
-3.92086
-0.372112
0.984835
0.932081
0.581328
2.38611
4.05943
0.587185
-0.68884
-0.67112
-0.0294605
-0.164014
1.34471
-0.712532
1.68355
0.904215
14.9485
13.1548
0.188962
-0.762943
-1.40764
-0.419122
-0.908236
-0.0395714
-2.90934
-1.23311
-1.8804
1.10684
2.21086
2.01292
-1.44486
-2.70665
2.01328
1.78154
-2.197
0.343987
1.15887
-0.281683
-0.419116
-0.0556562
0.0177392
-0.1858
-0.357472
-0.764121
2.52594
0.225184
-0.15545
-0.241035
-0.145208
-0.220887
4.95778
0.852331
-1.01833
-1.2019
-1.61398
1.81614
0.661708
1.00239
0.71042
0.473567
0.632873
0.843632
1.57043
-0.218508
-3.36948
-0.0492606
-0.137789
0.102852
0.417971
0.00286285
0.0930422
-1.21948
2.6362
2.46266
-0.100808
-0.129515
0.0465582
-1.09192
-0.186513
-2.51073
0.698767
-3.59608
0.0342626
0.713946
-3.10695
-0.621035
-4.27078
-6.16193
0.90938
21.2924
21.7649
21.8625
8.36518
-0.0839178
23.0333
-0.27299
19.1358
16.573
17.1726
15.9226
24.0127
23.1575
-0.712466
25.0637
0.050386
0.889263
22.2121
21.5814
30.3474
29.8368
24.4182
25.9164
0.285478
23.2315
21.8717
-1.21835
15.2405
-1.79167
13.028
24.2073
23.8458
23.4666
19.5651
24.8355
24.0632
24.3828
24.0207
25.4123
26.092
26.082
-0.685414
15.3292
-0.0379266
22.739
22.2046
2.13914
1.99924
2.18696
0.414038
21.8681
22.7008
20.6746
21.7809
0.0567279
-0.0526273
0.635839
0.742037
25.6711
-2.81454
-1.00458
23.7873
24.5205
24.1024
22.2216
-0.10873
-0.105595
0.331502
0.411967
17.86
1.15964
1.40587
24.9338
24.8732
24.9519
23.7083
20.3699
20.3833
21.7872
14.5162
17.0849
15.8071
-0.450432
-0.582075
0.986565
1.29438
20.3617
19.4664
19.7812
18.5797
16.0734
-0.183877
-0.105476
-0.476693
-0.220505
-0.280813
-0.0293913
0.0982964
0.0615259
0.0747766
0.753073
1.47079
2.14437
0.417412
0.57915
0.587437
-2.38515
-2.06098
22.2831
22.7506
22.2559
23.4807
23.6366
23.6565
22.5474
17.9288
30.8763
-1.22394
-0.14845
0.10777
-0.0303966
-2.58924
-3.2462
-2.79796
-3.20996
-3.60554
-2.01763
-0.360152
-0.409214
-0.580755
-0.833979
-0.603161
-0.675553
1.59277
1.47236
12.0443
3.01437
0.782793
0.637028
0.637399
4.80311
5.56463
-0.326968
-1.14142
1.71194
-3.66798
1.02617
0.938116
-0.592211
-0.325549
-0.272733
1.57803
2.56638
2.31446
19.0336
18.3761
32.7236
0.555893
0.460858
0.427678
1.58448
2.10322
0.155438
0.301488
4.93454
-0.788852
14.4156
13.802
0.358614
2.33265
0.24961
0.200999
-1.39487
14.1617
16.5236
1.63749
1.87734
-1.53622
-0.0446316
-0.509364
-0.23187
1.30051
1.98788
11.8751
11.7
12.9229
24.0517
0.588586
23.6323
1.99282
0.184523
3.02322
-1.58211
0.715954
0.818968
1.54006
-1.78753
-1.5544
34.9894
37.5075
1.32753
1.58904
-0.0726194
-0.862999
2.05183
-5.98734
-1.93809
5.41464
1.76485
-1.28295
2.44081
2.40487
-0.784434
-0.750381
-0.64478
-0.946061
-2.48948
-2.69322
17.354
17.8058
18.704
0.111285
0.24634
1.69742
1.93486
0.467907
-2.91163
-2.24034
2.10472
20.6204
0.107136
0.0211307
0.15964
0.095791
15.4957
16.7688
17.5621
1.69587
1.8733
2.01343
-1.61731
-1.68231
-1.89259
-1.73458
22.2443
20.4265
20.942
21.307
-0.880528
0.0178877
1.57608
21.954
21.2528
1.50114
1.27504
-0.31842
-0.270827
19.1834
19.3805
1.33958
0.777878
0.0943055
0.0967763
0.311745
0.167816
-2.02892
-1.99232
-2.29082
8.78162
28.9673
0.550786
1.32969
-0.16959
6.37747
-0.912523
27.1115
26.9514
-0.817448
-0.34198
24.3615
23.7828
25.3958
28.3607
28.9892
4.47894
0.26053
28.6776
19.5846
27.5285
27.4802
-0.241952
0.453935
27.1517
14.3075
1.91227
11.9137
19.1121
17.6061
25.0912
25.0889
26.0325
27.7601
27.4813
0.422847
0.995348
19.4259
21.7087
22.2057
19.9988
1.07777
0.734174
0.880609
20.3442
0.440643
0.643918
0.350476
0.44183
-0.128868
-0.221003
-0.314557
-0.178425
-2.0674
-2.4264
18.4431
15.7006
15.832
16.7063
18.4794
23.1279
22.9125
22.9813
22.1522
0.114982
-0.0252319
-0.028949
2.55896
2.93332
2.73402
2.50403
19.745
19.5839
1.25751
1.22767
26.8052
13.3593
-0.154641
-0.123734
-0.204752
-0.114123
2.73686
16.5028
16.3732
20.6425
21.4866
25.2096
0.263877
0.496988
0.143011
0.42333
1.31015
1.00672
1.03816
3.36223
3.69346
3.72354
2.89658
-2.51581
-2.42281
27.746
4.90995
22.0141
29.8861
29.6905
29.2904
26.206
-0.584809
26.4877
27.9718
-3.44375
9.14517
5.66587
-7.21187
11.49
-2.33888
24.0462
23.5819
29.3314
0.122533
0.229377
26.8573
-2.20618
-1.62683
-0.082311
-2.86128
11.4828
10.5282
9.42854
0.0739384
6.18091
-3.75686
-0.212632
-0.462869
29.8509
17.3029
-1.60327
-0.801713
-3.38272
-2.90014
-0.175069
1.91219
1.36698
2.03371
2.26202
4.18679
4.8674
26.4303
18.0587
17.0283
-1.84909
25.1189
25.3665
0.515124
14.0423
13.0824
9.62013
4.06856
-0.158609
-0.734343
18.8426
5.09847
11.0934
14.7861
15.7233
6.75351
6.17514
0.615337
0.23762
-3.24688
-3.1067
-2.66848
8.99677
8.91306
-4.15278
-2.15576
-2.05891
-2.59317
2.56113
2.64303
-0.699016
0.128275
-2.8916
-2.63297
-3.26465
31.6468
-1.10439
-0.574333
-0.209041
22.2357
-0.0721691
-0.124405
0.249701
24.749
1.66458
0.430699
0.601936
1.44995
15.8028
14.304
14.4057
18.091
0.863749
0.328226
29.6276
0.00277729
0.694728
-2.01374
10.9649
9.90075
3.79408
23.0815
3.57593
3.26332
16.6872
17.3034
18.2831
-0.567176
-0.527118
-0.657515
-0.324958
-2.65873
-2.29927
4.0355
3.63691
3.10292
1.7565
2.02446
-0.54142
4.21786
4.7003
18.7115
31.045
12.8493
3.48198
1.16121
0.557894
26.7506
-0.153787
-0.229851
13.6622
23.0315
-4.56461
-3.49935
26.0252
27.901
27.8192
16.3569
-1.86506
27.1075
26.7092
26.8478
4.88278
4.41918
26.2626
26.3791
2.70116
3.22368
2.89116
-5.61032
-2.21863
23.9894
20.5927
20.3566
21.2071
21.1319
28.7974
28.0528
28.4829
15.8077
5.77137
2.70276
2.96425
-1.95799
-1.07754
-0.347533
-0.236375
-0.193777
1.55646
1.25962
1.22435
22.6445
23.0848
-1.61092
-1.6557
-1.19369
12.0831
10.6777
12.0373
10.6802
9.57518
10.649
-2.56398
-2.72411
0.00915575
-1.72059
0.32166
0.159788
0.437467
0.362751
1.23479
1.77292
19.629
19.3298
7.69516
7.98476
-1.22218
-1.26925
-0.231465
9.09732
-0.878671
18.347
18.6723
-2.13361
-2.3129
-2.61723
31.901
20.8463
21.9947
21.4735
0.179651
0.0664875
-0.195384
15.7518
16.9757
0.85504
0.673394
19.4806
20.2437
22.4681
14.3579
12.8264
13.9302
-0.137101
-0.168284
1.79165
3.3824
2.65145
26.6628
26.49
-0.473018
-0.511433
0.0116005
-0.355953
-0.193764
30.4508
1.17983
1.84177
30.7474
2.68171
-1.02372
1.30806
1.59821
-0.411111
2.22098
2.96231
2.48776
-0.658344
30.1868
30.2445
-0.531111
-0.706769
-1.05528
8.66188
29.2684
29.8683
28.434
28.9128
28.9744
30.768
31.5695
-0.0846734
-11.6841
1.11541
1.23885
1.09176
-0.22783
0.694999
1.85402
1.78616
-0.653794
-0.104312
-0.370395
28.8418
28.4645
29.5111
2.57203
2.03309
2.19479
25.4933
27.9647
26.9028
30.0641
24.4789
23.6659
30.0472
-0.750296
-0.877341
-0.304325
3.3556
2.92115
3.07231
3.71912
5.30323
4.34253
4.88889
4.43249
-0.427678
-0.557438
-0.596202
-0.287646
22.4447
0.191028
0.0240315
-0.332852
-1.04743
-1.22184
20.7096
19.4095
26.0208
26.3213
26.1124
26.3246
24.5771
24.356
30.9209
31.3906
29.8662
23.6706
7.92821
8.66079
-0.113686
26.402
25.2226
-0.185071
23.1911
24.3898
24.7216
23.8645
-10.4343
-6.44275
24.3259
24.0637
23.988
21.3121
-4.6354
-5.3819
23.1616
23.1546
0.133175
21.174
0.8903
0.986775
-9.16883
-6.77218
-1.09651
3.49772
23.6249
23.4979
-3.49321
-3.92526
-1.20952
22.5465
29.8595
29.4216
25.0403
30.0412
29.805
30.1462
-0.0478452
-0.832975
25.3569
25.9446
25.4297
-4.71844
3.20706
22.8902
22.1356
22.6923
-0.647585
-0.369215
21.1272
24.6179
27.6719
28.1245
28.243
4.65482
-0.640229
15.1506
-0.425635
-2.61597
-0.880956
-0.361486
2.83331
20.8858
17.5117
18.2543
6.94445
14.9627
18.9016
10.3125
11.1349
6.1399
7.1311
5.40369
-1.97007
-1.83522
-1.62716
-0.432806
-0.043709
13.7004
14.278
-3.02052
-3.25379
24.4744
25.1353
24.6058
-0.140525
0.141436
-0.119935
29.7134
-0.912382
-0.435205
26.512
11.1824
8.02548
8.74919
-3.97537
-5.10839
-4.38046
-1.24891
-0.513584
-0.845499
-2.26829
-2.58156
-0.840714
-0.99261
-1.30225
27.4624
30.4677
24.8611
25.1107
25.4454
-0.896826
0.107943
16.864
17.472
8.18868
9.4982
28.7821
-0.339227
-0.294584
-0.477869
-3.21251
-3.03956
29.1783
21.8545
-4.76769
-0.855573
-0.874036
-1.16616
-1.07414
-1.37314
-3.09856
-2.90705
-0.134805
8.50836
7.11593
10.6031
-2.74005
-3.44442
-2.53567
0.404842
-4.64152
-0.296984
-0.149716
-1.26593
17.1756
16.8948
-1.44777
3.90084
20.7191
26.3045
3.5548
1.59084
1.50853
22.0719
22.5088
30.8695
5.59042
6.40181
7.39101
5.81794
29.9541
30.1051
-0.372161
-0.322484
-0.192126
-5.12213
-5.83709
-0.557031
-0.58912
25.3689
24.1197
22.6435
-1.6986
0.685252
0.492416
0.732637
0.950912
-1.95226
-2.89363
12.0994
11.0514
-2.34728
29.4095
30.1784
29.7177
29.7822
7.14504
20.9548
18.2336
18.9797
9.06076
9.65901
10.0999
7.56776
8.24425
8.31369
7.45026
6.43923
-7.2103
-2.39293
-2.69064
-2.31812
-2.38857
26.1045
26.1548
25.7861
-2.96885
-2.48515
-3.11753
-0.607166
-0.646198
26.5762
26.5487
25.802
3.25133
-0.877128
-0.987108
-0.688138
-0.476693
-0.354702
3.3397
2.11485
1.50328
3.30291
3.02841
4.63712
0.194261
9.49871
-3.37653
-4.92198
7.94238
6.23202
-1.58418
-3.26353
-1.2583
3.18682
3.32876
3.24198
3.99206
-1.72073
-2.06974
-2.23388
-2.3729
-2.31755
-3.20986
-0.814683
31.5697
31.1189
6.38547
2.10718
30.0755
30.8626
2.11851
2.07557
2.30766
0.459548
0.488769
23.3944
22.746
23.1507
21.3847
27.6879
28.0248
27.9301
26.9496
0.304261
-0.158031
0.0550225
-0.309276
19.6011
-0.259659
-0.44983
-0.252949
-0.247427
-5.99533
-5.43928
-19.9394
-2.51094
-1.83995
-19.4658
26.7644
9.65015
-14.2817
-3.92017
-5.81483
-5.77241
-13.63
-5.79753
21.0382
21.6693
29.3984
-1.42843
28.9911
5.15486
-5.2953
19.0868
20.1036
-0.711726
-1.72432
-3.98885
-15.5895
-3.66523
29.7069
5.67775
5.69803
6.25653
-8.27956
-7.00606
5.33241
29.6501
-12.0457
-2.73244
-3.64916
24.7162
24.1857
32.9773
11.7971
11.3643
1.09462
28.9497
27.1031
27.1297
31.6634
-2.09794
28.8307
19.6705
10.7803
-2.01609
-1.81667
29.135
-7.69764
25.3678
22.5263
23.5595
-0.503786
-3.60459
-4.32016
-3.14897
9.48199
30.1157
30.4459
-5.51273
-5.99306
28.6677
28.3809
1.13643
29.3082
24.6177
-2.69141
-2.94099
4.51966
4.35937
29.3188
20.1494
19.5025
20.482
2.36219
24.1695
24.6131
29.4383
1.89582
1.39496
1.2539
-1.50425
-9.28266
-10.2067
7.07189
7.71451
29.1821
4.1407
-9.28511
17.8972
25.4458
25.1022
29.4105
-4.55286
-5.5657
-5.78789
-5.72222
31.6595
28.0255
30.1087
30.4269
30.1861
29.4676
29.1116
29.2384
31.0238
-16.8439
31.0637
32.3534
31.9122
29.5137
28.7037
-1.33245
-1.81599
27.6078
-0.497318
-0.53983
27.6621
27.6391
10.099
9.92421
10.4697
14.4168
29.7947
29.703
1.03619
0.83366
28.5103
28.2004
29.4585
23.8918
23.6653
27.8116
27.9392
-5.07746
-5.89919
26.8902
26.9258
14.6705
12.6135
13.8027
-4.27839
-4.79395
-8.45515
-11.756
-0.484276
28.2402
25.3276
26.2405
28.1186
20.8249
20.2428
25.4733
25.0116
30.9167
23.0932
20.6963
25.2621
0.901717
26.9822
26.8336
-0.438909
-0.542666
-7.04545
-6.70781
27.7429
28.8491
28.7587
30.2844
0.258855
22.3894
-1.0084
-1.29028
-0.972204
-3.37078
-3.87083
-3.31152
22.9193
23.1967
0.592923
0.561878
-6.6493
-8.23242
-0.985632
-1.76405
-2.03427
-1.91741
-4.76437
-4.0593
-4.08887
26.3007
-5.27946
-6.16818
19.4744
20.1092
-3.75011
-3.82207
-4.51111
10.9569
14.1779
27.3827
27.2897
-0.437345
0.0801752
-0.289455
-3.61934
-2.40358
-0.436983
-0.498395
18.7212
18.6933
18.8975
19.1756
0.166058
6.44677
5.83844
6.76154
-3.48173
-2.97819
3.30819
2.54802
1.70992
-1.53961
27.9655
28.1173
27.6035
27.5045
4.38459
9.18323
7.98293
29.3066
28.5778
-1.35664
-1.58998
28.5295
28.343
28.4264
27.8315
27.6114
27.474
27.7974
27.4208
27.5162
-0.392329
0.185718
-0.286931
1.54579
1.02548
27.3496
27.8383
27.5983
28.175
2.48915
25.7847
2.80668
3.6501
15.0091
15.6663
-1.30313
-0.987274
-1.54046
0.984523
0.37843
24.4643
24.6613
-17.3839
-15.6952
-18.6188
12.602
9.55341
10.4115
26.002
25.6072
30.1915
29.9321
30.134
13.514
12.7078
11.406
-4.82102
-4.09939
-1.55275
-1.42693
4.09167
4.44079
5.14938
27.612
27.4196
30.2525
29.9848
26.0519
25.4616
26.8565
27.1315
-9.94172
-10.2546
-11.5119
13.9208
16.1634
16.3135
15.0072
2.83482
2.21953
2.59633
-3.75731
-4.09651
-0.354441
-0.29847
-0.333005
-7.8421
-7.65083
-6.706
-5.61016
0.748907
0.921559
-10.9696
-8.46536
21.9543
23.1159
25.1389
0.435676
-9.53779
-2.63098
5.47045
-4.95548
-58.3748
-6.41075
-33.6211
4.21146
5.01424
4.79049
-75.5522
-58.4515
-52.4631
4.10399
3.68787
4.80443
5.31131
5.25593
5.28586
6.26498
-2.1854
-2.68145
6.57494
6.64144
-76.0757
4.13795
3.84937
-1.15614
3.19873
4.02804
4.05992
3.38025
2.34128
2.12919
1.85193
2.82834
13.2436
12.5669
4.32378
27.8342
27.9203
26.3475
26.4162
-1.74143
-10.1276
-10.6384
-11.9528
34.3695
34.7634
1.54491
-28.2375
9.66172
8.6956
32.6688
-7.89726
-11.1782
-9.45235
-8.52179
2.6372
2.12885
-12.6138
-20.3439
-23.1536
-33.9986
-3.28466
-10.9238
26.8881
27.0677
-0.262992
32.4831
32.0752
31.9702
-3.57024
-3.79292
-4.98754
7.51758
-6.6354
30.0602
1.27904
0.873109
-0.659924
-1.06835
-9.40747
-10.6056
-2.74567
-5.28124
9.95676
-0.211339
-0.45024
5.94073
5.40185
5.81457
-0.698706
-0.396267
-1.45992
-1.15702
-0.291365
13.3309
4.87227
4.89294
2.7444
1.34001
2.67425
28.9386
29.1468
-8.64493
-8.79398
-0.604716
-0.753688
23.9853
4.04429
-17.391
-0.942279
26.4958
26.6878
18.0426
19.7964
6.36512
-1.03021
-2.47085
-66.6642
3.65805
3.98165
3.1547
-27.1514
29.1633
28.8242
34.9765
33.3785
-0.0371267
0.249274
-1.03953
-1.00408
-4.84946
-6.53357
-5.45818
0.761748
2.31102
-0.741569
-0.561252
-9.56157
-10.628
-11.614
5.99743
-21.5945
-1.45829
27.8827
26.2326
26.3174
26.0558
29.3258
29.5291
29.5308
26.3948
26.6846
26.6158
7.22985
6.75307
8.07993
-2.65489
-4.86851
-21.2054
27.4223
27.5043
27.8057
-0.911571
-0.623307
6.85697
7.15826
-1.5169
29.5331
29.4338
-8.82875
-7.85948
-6.65723
28.133
28.0531
28.2064
0.12728
-6.39885
-7.42896
-8.96609
5.65842
-14.0015
-15.667
-17.3704
21.3471
22.3088
2.75927
2.73166
2.49126
-18.4056
-16.3476
-8.69347
-0.263622
15.2274
14.4766
12.7927
-16.4054
28.5434
28.4792
28.3287
28.3553
29.555
-4.8587
-6.06929
-7.88745
-13.4041
-14.9054
25.8427
16.9513
-0.781539
-0.929589
-10.5219
-9.54408
4.15683
3.23707
-2.95345
23.1824
22.8668
22.9398
-0.576838
-0.403398
-23.7255
-19.1042
-3.69257
-4.17727
30.5954
27.8814
28.1778
27.8885
33.2804
0.0294031
0.401569
0.255406
23.5225
23.6302
24.023
27.2791
-8.90807
6.83829
6.40181
7.89226
27.0176
27.3541
37.7662
-7.01343
-0.32484
-1.19428
28.8084
28.6474
21.5082
21.4944
-0.470921
31.1701
31.2032
31.3453
30.2356
31.6717
31.0793
30.6643
24.6426
24.6616
-0.354041
31.114
30.6824
30.8898
19.2761
19.3563
20.9183
30.9656
29.0827
28.81
-11.9183
-10.4253
26.9203
27.1566
-0.856885
0.457373
-6.99079
0.613803
1.23344
30.1026
31.1887
31.4173
31.8151
-0.851902
-0.487653
0.0179257
29.2502
-6.54469
-7.81582
-5.60184
-2.15727
-3.38565
-4.8294
28.1547
28.109
22.8977
23.3155
-6.44545
-8.11407
-7.45214
-1.08534
-3.06959
-2.99634
10.8331
11.4789
9.90935
23.8924
23.5515
26.5598
-4.52215
-5.16412
-2.21145
-1.92399
-1.32657
-1.42353
-6.80136
30.2557
30.267
0.62106
-2.36074
27.002
26.7934
23.9396
23.7727
23.3016
-5.65785
-5.69252
29.193
28.1308
28.202
29.5622
29.723
29.8036
27.1187
28.1093
25.8457
24.6996
24.4458
24.3661
19.0581
18.1765
19.0258
-0.461679
-1.41099
1.61029
0.918187
-3.53313
-3.99779
-2.71088
-5.04599
-4.92248
32.35
31.913
-11.429
-9.96993
31.2527
31.7927
31.4587
32.6921
31.2438
32.4004
-4.25849
-4.94364
-5.57021
-4.0198
1.46639
1.57391
1.32039
-0.817869
29.198
29.0861
29.3149
27.424
26.8459
0.141824
0.214496
0.0569082
-0.262304
-0.830175
-1.13703
31.5563
31.4669
-10.6773
-29.6606
26.7856
-12.1307
7.53377
9.69278
11.5003
-23.8102
-32.428
-50.5609
-29.4613
-35.9152
-32.9926
-32.797
-31.59
-34.2723
-40.8126
-49.5003
-30.5288
-31.2254
-38.9458
-42.9447
-31.5919
-71.7992
43.4205
34.9939
-1.08782
-0.514457
-0.126696
4.87622
-61.6879
-39.4765
-9.64185
-36.9728
30.9672
30.4558
31.0465
30.5973
-29.5145
-29.1165
6.22026
5.50169
6.94461
-38.0086
7.4316
7.66584
7.61143
8.90699
14.3685
-33.876
8.15475
-37.5262
-31.3554
-56.4965
25.1422
-32.1534
-25.4729
-36.3161
-28.6384
-7.73505
-8.75084
-2.18968
-2.36599
-19.6425
-27.6389
-25.7952
-2.12606
2.42202
-28.4887
-31.735
-7.3158
-39.3712
-13.2405
-25.7923
-46.0653
-8.25962
-8.18134
-11.7464
-26.6499
-23.1351
-27.583
-23.4199
-12.9485
-25.3756
-36.9728
-6.99374
-27.3149
-40.6814
14.4834
15.194
-0.600856
-2.11668
-1.71202
-25.3117
10.6394
-9.23267
-10.3175
-54.7063
-24.5677
-24.3222
-30.1815
-27.0858
0.547773
-13.4899
-15.2886
-17.9772
-21.4298
-19.5316
-6.33983
-32.4637
-2.42201
-14.1638
28.3858
28.2952
28.6901
-9.22001
-15.8989
-13.6667
-34.7854
-23.5935
4.7104
-9.42323
-10.6344
-11.8973
0.319373
0.458361
-17.5311
-1.5559
9.63183
9.52469
-18.7276
-21.4409
-13.113
-11.2989
-11.3944
-4.66025
-5.20406
8.40606
-8.48585
-73.6807
27.5233
-5.71161
-6.1949
-7.70042
-43.5745
-1.10124
-0.937918
-6.54629
-7.25162
-63.3483
32.5193
32.8926
-26.9915
-27.9887
-27.3101
1.43819
1.80323
-7.28434
-10.5315
1.44998
-19.7297
-21.9762
-13.9206
-11.8591
-27.9792
-30.0761
-59.5914
24.7168
25.3591
26.3001
1.52767
3.52349
3.49733
-26.818
-12.042
-13.7547
-5.14
-4.24014
-3.72848
-33.2584
-31.3019
-27.4156
-1.72762
-2.12366
-1.47578
-1.10298
-7.89691
-16.3277
-0.915306
28.9331
28.877
28.6742
28.5421
5.35926
-0.478343
-0.54307
14.5724
2.45181
-6.23031
-24.3762
-21.0377
28.5443
-37.4454
-14.8606
-13.2226
3.5537
3.60495
-7.70834
-16.4071
-36.1585
-0.631464
-0.507337
4.05596
3.82657
2.95969
-11.4409
-11.948
-29.0753
-25.3991
34.6708
29.6261
-3.85077
-69.0533
-16.7684
-19.8333
21.0696
21.4919
34.0756
35.5159
32.2522
32.9167
-5.96932
-5.06494
-16.2809
-19.4177
-0.321194
-5.91068
-7.33987
-8.67015
27.1026
-59.616
-26.6185
-2.1081
-1.33135
-3.41242
-29.0124
-13.022
25.1667
24.9189
24.9704
-0.796901
-28.6657
28.3891
28.6957
28.4379
-17.0316
-14.9177
-13.8768
-2.30208
-3.0758
16.2286
-0.4268
-5.41618
-7.31827
-6.36913
6.44352
2.9692
3.4169
-8.43446
-7.54895
-2.91192
-1.96939
-2.04978
29.8037
29.4487
29.3539
-0.867467
-0.808887
-28.2348
-2.89932
-14.6559
27.3272
27.2758
-11.309
-8.43836
-9.33191
1.15471
-0.111232
-1.79954
-1.23773
-1.55513
12.466
10.3975
11.2599
30.1605
-5.52271
-5.42952
-2.84013
-3.65517
-4.21473
-4.76497
45.2387
38.4805
35.1971
-12.71
-11.3192
-10.5618
-36.332
7.75823
6.4017
7.97611
-7.74423
-6.74879
-0.951362
-0.571017
-33.0288
25.1333
25.4072
-9.3658
-7.77915
26.7421
26.5883
30.9494
30.6324
30.8169
9.5255
11.7699
10.0786
11.4714
32.3482
32.2852
32.8311
-7.1807
-7.05931
-8.46646
24.9232
25.5433
25.203
25.0013
25.2666
25.1569
25.5189
8.87308
8.70807
0.950029
-0.992203
-0.121036
-20.1258
-30.4948
-39.8215
-43.8475
-33.8173
-14.8702
-25.1525
-25.9362
13.6353
9.86753
-28.8135
3.71811
-29.2199
40.1395
-27.0221
-20.8762
-17.1108
-29.7572
11.3158
12.4907
-25.6694
20.6587
18.8393
-12.4966
-16.6534
-16.5751
-15.8438
-24.6737
-30.9689
-31.9863
-17.4006
1.41139
1.14345
2.35777
0.448051
-29.7552
-29.9061
-32.0736
-28.2489
7.38323
8.01439
8.72374
-41.7615
-1.19538
-40.3338
-31.9977
3.75309
8.87408
7.87569
-17.984
-16.8944
13.4883
12.1738
14.22
13.0875
-7.43636
-7.46743
-1.77654
-16.1917
25.7133
25.6616
25.8444
25.4356
25.7281
26.2832
26.1497
26.2559
-7.06168
-8.86366
-27.2866
-27.3727
-25.9544
-25.6572
-24.9321
26.2663
-3.56824
-29.1745
-43.5525
-27.142
-27.2263
-30.2335
-25.4723
-29.5843
-23.8278
-27.8564
-38.2851
-45.0147
-45.4741
-28.7732
-49.0569
-28.6283
-28.2664
-3.9003
-11.0574
-12.1313
-28.9997
-29.017
-33.3989
-44.3686
-39.1682
-28.9583
17.292
16.7788
-7.59383
-18.5952
-17.1598
-26.6479
-30.8445
-30.8185
-28.9979
-22.098
-29.8735
-41.4195
-41.5492
-29.1393
-29.1289
-30.339
-25.2373
-29.8893
-22.8948
-22.7272
-29.5832
-29.4795
-2.8129
-19.1959
-22.3523
-31.7745
-35.2256
-35.1959
-35.0501
-28.9516
-29.3579
-41.3935
-41.0397
-36.0173
-27.0366
-27.8735
-29.4009
14.3473
16.5709
-41.424
-32.5026
-28.7604
-28.7566
-31.4135
-8.84777
-9.56113
-34.0818
-10.5659
-13.8019
-12.4101
-41.5523
-59.4854
-28.8216
-31.4501
-32.9645
-33.3262
-32.9079
-31.146
-31.099
-30.3472
-27.7366
-34.9302
-40.3502
-45.9876
-27.1215
-27.1322
-29.5505
-29.3013
-46.419
-67.6516
-56.6837
-65.7439
-23.8942
-29.0255
-28.1164
-31.3912
-32.9455
-33.2591
-33.9702
13.7124
13.0148
-32.6446
-33.0421
-47.5671
-47.3353
-31.0095
-31.349
-64.4667
-61.3542
-29.3114
-58.0599
-56.4962
-16.7509
-55.9933
-0.00136736
-1.59392
-26.4899
-48.3466
-49.97
-49.4292
-69.2011
-43.0047
-43.0364
-42.025
-10.0168
-1.94687
-33.1881
-2.60641
-2.65898
-25.4417
-24.8537
-52.7021
-63.1346
-10.7192
-31.8408
-28.5533
-28.6949
-32.7968
-34.4377
-33.0685
-31.7511
-34.0944
-27.5754
-27.5152
-5.18985
0.0695932
-27.5321
-17.9589
-16.54
-48.1793
-49.2727
-47.4594
-21.0082
-18.8617
17.0773
-24.865
-16.571
-38.5802
-35.0014
-28.3256
-27.6961
-29.6834
-2.34903
-1.89715
-5.44739
-28.9878
-30.3558
-33.4784
-29.4475
-29.4157
-32.2197
-31.7698
-53.5269
-52.705
-29.1953
-29.0074
-51.1638
-50.4992
-28.6778
-37.0473
-35.8434
-34.3542
-36.5036
-47.2199
-3.87963
-3.60782
-14.6232
-16.4331
-37.5666
-37.2777
-36.8675
-25.2401
-5.42326
10.4471
10.2353
-49.0925
-44.0766
-29.8667
-42.2837
-41.426
-41.7575
-35.5528
-35.2668
-34.9922
-29.7607
-25.3908
-27.7257
-48.2917
-47.8956
-48.3866
-40.9147
-42.7046
-23.1314
-20.501
-19.1042
-30.2826
-57.0306
-59.5809
-32.4794
14.9375
16.7446
-1.37989
-1.27952
-12.5458
-29.2427
-29.0555
-2.3999
-1.66934
-29.4006
-28.8938
-34.441
-36.9976
-32.75
-49.4269
-44.3404
-36.3463
-36.1962
-36.203
-22.6625
-23.0551
-25.7496
-27.7232
-28.9634
-10.5075
-29.4345
-29.7611
-31.2436
-31.7698
-16.0156
-5.46983
-5.10293
0.264902
-27.9204
-23.3793
-24.5977
-28.8334
-40.5144
-17.429
-3.33672
-1.51133
-23.8426
-20.3665
-22.2346
-23.5431
-43.378
-33.4776
-29.5512
-58.7326
-57.0918
-28.4741
-50.7208
4.76273
4.98269
5.88448
-49.2804
-2.00746
-1.57781
-20.2042
-17.3147
2.07241
3.33982
1.6381
-8.00257
-41.5379
-42.4728
-42.5496
-39.0827
-39.5172
-25.4842
-23.3738
-69.5422
-65.0551
-66.7647
-65.2514
-5.70151
-4.51469
-32.9478
-16.0313
-25.7286
-27.5056
-24.1271
-2.33922
-60.0767
-60.4523
-26.7867
-5.33164
-7.08412
-1.54212
-1.69848
-1.40861
-25.7958
-23.9866
-22.7229
-0.868025
-36.7758
-36.2493
-36.1764
17.0592
18.3593
17.8101
-29.3293
-30.2553
-29.3467
-27.9936
-31.0079
-37.1317
-36.7424
-14.6205
-16.1057
-24.3182
1.61112
-3.48429
-3.17495
-2.55353
-38.6209
-35.8817
-37.5523
-34.0964
-33.3044
-45.1467
-1.20089
-0.981942
-1.92598
-5.21811
-45.5055
-43.232
-40.1463
-19.5481
-18.3122
11.0758
12.0077
12.1548
-37.739
-38.0458
-53.1452
-54.2908
-63.2436
28.5323
-20.9618
-26.0192
-27.7928
-40.8746
-14.5244
-12.7806
-28.3905
-30.3678
-1.364
-26.4198
-11.1522
-11.797
-29.1121
-29.2199
-36.1668
-28.8038
-28.7292
-19.0478
-4.66792
-4.30783
-47.3039
-46.553
-25.0932
-27.4514
-21.1624
-1.26572
-39.8482
-36.1281
-12.7024
-10.9731
-9.87686
30.0314
-34.4663
-50.013
-46.8551
-63.8361
-58.3473
-3.66073
-28.6599
-28.2839
-7.07729
-24.8105
-27.3235
-27.0994
0.893021
-1.07801
0.113515
-54.1351
-2.50129
-3.3944
-3.18274
32.2297
29.8929
33.5134
1.50191
30.4552
30.1925
29.941
-19.8997
-21.7736
-2.52438
-4.12263
-6.30882
-14.5008
-13.2326
30.3954
32.7643
-58.7999
-10.5117
-9.66957
4.71619
3.61008
-44.7275
-45.2878
-44.3289
-43.6153
-43.1201
-48.0617
-1.27222
-1.2728
-1.22622
-1.21479
-5.88352
-4.63927
-11.5062
-14.9054
-45.7337
-46.2061
15.1676
14.4992
-15.8665
4.84074
6.14749
-37.9204
-32.8219
-35.9511
-1.45353
-28.0377
-2.03918
-2.05109
-4.63369
-4.75953
-43.3345
-23.6782
-21.9939
20.7382
-11.395
-14.797
-25.1171
-22.6684
-7.88645
-71.4004
-64.5827
-55.9271
-20.0028
-22.4802
-28.3217
-28.8673
-2.55186
-2.02315
-9.26059
-9.31385
-10.5901
-8.39554
-4.67733
-6.76077
-4.49962
-1.68303
-1.78284
-0.721893
-0.473145
34.6216
33.1981
-32.1747
-32.52
-37.1743
-38.2574
-23.3487
-24.2495
-24.1902
-29.3641
-29.4102
-30.7341
-22.0053
-18.5353
-2.4878
-3.88968
-2.64126
-0.660788
-0.69699
-0.655338
-1.98029
-1.00071
-29.3708
-29.7257
-29.0576
-3.43858
-4.06055
-2.7104
-2.1249
-13.1025
-4.81674
33.3073
33.9441
-13.6729
-16.375
-0.864209
-1.28177
-0.318324
-18.8124
-18.068
-22.7605
-20.8009
-49.5905
-48.8934
-51.9253
-19.6718
-10.416
-11.3268
6.63806
5.91267
7.30768
-2.18462
-1.78859
-1.69701
-3.70279
-17.9614
25.7472
26.0357
25.927
10.6896
10.1897
-61.4238
-61.647
9.09503
6.68774
9.39524
12.5483
3.29949
-22.9064
-20.781
-18.2027
12.0152
-15.4638
-28.3717
-28.5229
6.41248
-28.27
9.50142
11.2937
-26.6996
15.3182
-28.8406
-28.7131
-26.4266
-28.8178
-28.9107
-29.1871
-16.8645
-18.5125
-19.8516
-16.0557
-28.354
-27.6548
-3.56993
13.2506
14.0664
-29.2704
3.34948
-28.61
-28.8382
-77.88
-8.78923
-11.3104
-28.9214
-28.8198
-28.996
-28.892
-24.4959
-17.4309
-16.5158
-13.4781
-17.7353
-29.2416
-28.8282
-32.639
-32.3287
-28.191
-76.9828
-28.741
-29.0198
-29.0174
-28.8935
-29.6122
-28.7076
-31.8929
-32.9041
-4.68917
-4.60558
-3.80407
-3.29219
-20.7815
-29.5197
-27.4836
7.96429
9.04636
9.00067
-143.672
-29.1409
-29.0081
-80.349
-26.5292
-27.1889
-26.7863
-25.6635
-28.0677
1.35977
-35.3377
-35.0233
-35.7424
-35.5485
-22.4135
-22.8602
-24.128
-21.8785
-41.1289
-42.6491
-46.1362
-42.5432
-26.8595
-26.4235
-28.2572
-27.7114
-26.4176
-28.3178
-28.1873
-27.0724
29.7551
29.9354
29.6939
30.0319
5.70017
-27.0743
-26.0125
-28.4434
-26.6474
-28.3197
-25.9199
-26.2912
-24.1105
-27.1478
-2.32818
-29.0623
-28.2406
16.4456
15.8362
-27.5448
-28.0407
-6.53839
-27.8749
-28.2223
-26.0591
-29.1538
-27.4469
-28.7806
-24.8845
-24.9542
-24.8229
-22.4596
-27.5347
-28.17
-28.2915
-28.9661
-29.2195
-28.9744
-28.9574
-28.1077
-24.6412
-28.9267
-26.0127
-25.9248
-25.5733
-17.3752
-19.2007
-4.20711
-28.5073
-26.3656
-26.6327
-28.6962
-27.689
8.59703
-26.1076
-24.6412
-25.571
-25.8748
-25.5433
-25.945
-24.6143
-25.8221
-26.093
-28.8486
-28.924
-27.566
-21.5753
-29.1505
-28.4821
-29.3417
-43.618
-26.9056
-28.724
-28.0062
-26.5555
-28.6221
-4.59765
-27.2275
-28.8185
-29.1753
-31.8471
-2.0667
-3.01267
-20.8583
-26.399
-29.0497
-29.0381
-27.1719
-26.1404
-28.3301
-28.7596
-23.3852
-23.6483
-25.3779
-24.9148
-26.5046
-25.7617
-25.884
-29.022
-16.0168
-25.1544
-24.9349
-28.1051
-23.2386
-24.5951
-23.4752
-25.5294
-28.9902
-28.6938
-29.2605
-27.4764
-22.9932
-26.5451
-23.4991
-23.9685
-20.1755
-26.6335
-29.1773
-29.2686
-14.6973
-28.3216
-24.8261
-26.4299
-13.5931
-16.0966
-29.1086
-23.1813
-24.6673
-24.6476
-26.2194
-28.4187
-28.231
-28.6781
-24.5192
-24.5922
-24.3243
-28.9952
-28.9813
-29
-28.9758
-28.1696
-28.3654
-28.5874
-28.5496
3.45303
2.99034
-28.2992
-28.9923
-29.0079
-30.1611
-26.7985
-26.683
-26.7902
-25.7726
-25.9122
-26.6169
-26.5001
-26.5082
-28.2778
-37.5185
-45.4726
-26.8939
-26.9109
-26.596
-25.8141
-28.7505
-29.1681
-22.7742
-23.9078
-26.6528
-27.4197
-27.7914
-27.4679
-27.3496
-31.32
-38.9454
-25.207
-26.6298
-26.77
-26.8292
-27.8346
-28.4808
-28.662
-26.5236
-26.1242
-26.8914
-27.7933
-25.6638
-21.9917
-29.2328
-26.5134
-23.2491
-25.8473
-28.966
-28.8064
-28.7036
-29.0035
-28.4433
-31.8007
-31.9581
-32.0209
-27.9639
-34.7079
-26.9778
-26.8669
-27.7966
-28.759
-28.0726
-27.6369
-0.255662
-0.647413
-27.6424
-27.6035
-27.2535
-28.4203
-28.5678
-8.27444
-10.2915
-28.391
-28.7194
-28.8502
-31.8436
-28.8582
-29.041
-29.3571
-19.6562
-22.3072
-26.8017
-27.1972
-27.615
-29.5084
-29.7573
-23.1966
-22.4231
-28.8168
-26.6007
-25.4674
-26.2619
-28.0859
-28.7152
-29.0348
-29.0964
-25.3887
-25.3112
-27.7111
-27.4818
-27.5967
-29.8537
-29.7969
-27.821
-29.388
-29.1255
-28.8454
-23.0507
-25.2388
-25.457
-28.8857
-28.607
-28.9808
-29.0599
-30.0858
-29.3659
-29.7203
-49.218
-47.4197
-28.6335
-28.375
-28.5572
-27.0023
-26.7703
-26.6325
-22.4161
-22.7501
-27.9775
-28.2367
-27.7244
-25.7653
-28.5514
-29.0621
-28.3258
-28.1071
-25.9978
-26.1164
-25.9957
-26.5
-13.5676
-13.6988
-28.814
-28.9018
-14.3237
-19.795
-21.188
-28.9506
-29.0122
-29.0562
-21.4382
-21.0769
-23.1361
-28.8011
-19.3642
-34.8622
-35.186
-35.1524
-22.474
-27.8953
-25.7465
-25.9641
-28.9014
-28.9865
-28.8141
-38.4308
-30.135
-28.6411
-25.908
-27.5438
-27.992
24.5289
24.2902
-28.4371
-27.1469
-27.1514
-29.7092
-29.6131
-29.4508
-26.9148
-30.0597
-29.7705
-26.7296
-28.8948
-28.9617
-28.8295
-28.7923
-27.1586
-27.9034
-23.5863
-24.5096
-21.4896
-30.6316
-31.1511
-26.3333
-2.76185
-28.8697
-28.4685
-27.6035
-22.6105