/*--------------------------------*- C++ -*----------------------------------*\
| =========                 |                                                 |
| \\      /  F ield         | OpenFOAM: The Open Source CFD Toolbox           |
|  \\    /   O peration     | Version:  4.1                                   |
|   \\  /    A nd           | Web:      www.OpenFOAM.org                      |
|    \\/     M anipulation  |                                                 |
\*---------------------------------------------------------------------------*/
FoamFile
{
    version     2.0;
    format      ascii;
    class       surfaceScalarField;
    location    "1590";
    object      phi;
}
// * * * * * * * * * * * * * * * * * * * * * * * * * * * * * * * * * * * * * //

dimensions      [0 3 -1 0 0 0 0];

internalField   nonuniform List<scalar> 
8143
(
2.02082
-2.77306
0.752237
2.02082
0.160631
-3.00909
2.91492
-0.894099
1.85631
-1.85631
3.00695
-0.391503
-0.125602
2.72391
-1.17808
-1.89747
1.17808
1.73684
-0.84552
-2.10503
0.84552
1.01079
-1.09424
1.35845
0.722812
-2.08126
1.441
-1.441
2.24658
-0.0657902
-2.18079
1.91212
-1.91212
-0.123436
-2.27419
2.39762
-1.41652
1.41652
1.30829
-1.30829
1.62289
-1.62289
1.43012
-1.43012
-1.34978
1.34978
2.8474
-1.35354
-1.49385
1.51289
-0.0718913
2.12739
0.119192
0.870826
1.70019
-2.44402
-0.0264824
2.4705
-1.55839
1.55839
1.66157
1.18582
1.78213
0.496512
-2.27864
-1.94574
1.94574
0.782102
0.820881
-1.60298
2.55388
-0.641766
-0.752497
2.06079
1.21522
-1.98102
0.765797
2.26201
-0.639121
-1.7068
-0.117788
1.82458
-1.77955
1.77955
-0.552716
-1.8913
1.27824
1.29328
-1.72768
1.72768
-3.38619
1.65851
-2.17137
-1.21482
-1.90606
1.90606
-1.12619
1.57763
-0.45144
1.95272
-1.95272
1.51109
0.222148
-1.73324
1.31147
0.199619
2.17487
1.21632
-1.21632
1.55674
-1.68018
-2.8965
1.15017
-1.15017
1.44363
-1.50942
2.5938
-2.65959
-2.02656
-0.621471
-1.14916
-0.8774
1.35363
1.65332
-2.17137
-0.515614
1.51289
0.43983
1.39384
-1.83367
0.0396708
1.8218
-2.00972
2.00972
-2.0362
2.22445
1.67174
0.395323
0.221158
-2.27418
2.27418
-2.54421
0.372837
0.208612
2.54421
0.737485
-1.71571
2.86488
-2.0362
0.23798
0.0690477
0.068869
-0.137917
-1.00855
0.981823
0.0267295
-0.0827407
-2.09805
-1.0984
1.01566
1.46576
-1.1208
-0.344958
1.45193
-0.0934853
-0.146209
1.31078
-1.16458
-1.1499
0.784166
0.365732
-2.26333
-0.0108544
-0.86692
-0.422934
1.28985
-0.0533015
0.00853248
0.044769
-0.00449626
0.00449626
0.512667
0.886393
-1.39906
-0.00800967
-1.00054
-0.874929
0.0525381
-0.0372462
-0.0152918
0.0682787
1.4072
-1.47548
-0.0496815
-0.0182075
0.067889
0.00285242
-0.00285242
-1.73766
1.02977
0.707892
-0.917917
-0.504789
1.42271
-1.51345
-0.584602
-0.857622
-0.655827
0.0949956
1.37076
-0.0395791
0.0479197
-0.00834063
-1.73214
-0.00552795
0.808703
-0.270227
-0.538476
-0.367071
1.39684
1.2945
0.478926
-1.43053
-0.832808
-0.324474
-1.10605
-1.25574
-1.06309
-0.332516
1.39561
-0.052882
-0.00041954
-0.264596
-0.885302
-1.39078
-0.881013
-0.234667
1.11568
-1.49916
1.38137
0.278067
-1.07124
0.793178
-1.24027
1.51833
0.0632627
-1.48877
1.42551
-1.36899
0.329149
1.03984
-1.80214
-0.158829
1.96097
-1.59583
0.28378
1.31205
-0.844635
0.698426
-0.607297
0.67056
0.155846
1.13401
1.13767
1.12315
2.04241
-0.295036
-1.74737
0.577738
-1.81801
1.09413
-0.581465
-1.18791
0.312985
0.191558
-1.28566
1.0941
0.877421
0.268267
-1.14569
0.760998
0.116423
-1.12472
1.39299
-1.39265
0.396592
0.996053
1.75173
-1.02892
0.262961
1.44158
-0.932565
0.959131
-0.0265658
-1.22142
1.42104
-1.20675
-1.10053
-1.56934
-0.553999
0.577077
0.862141
-1.43922
-1.20175
1.53596
-0.33421
-1.65325
-0.428009
-0.0184859
1.54881
-1.53032
0.31932
-2.23144
-1.48282
-0.221719
-1.1133
-1.78319
1.43778
0.433415
-1.87119
0.396681
0.412022
0.165463
1.29866
-1.46412
-1.5593
-0.173936
-1.22354
-1.08706
-2.46915
1.24561
-0.254718
1.03888
-1.32291
0.216858
1.27735
-0.0915294
-0.0755986
-1.56698
1.64258
0.0357612
-0.0854427
0.00386614
0.103472
-0.107338
-1.76031
-0.0733596
0.7844
-1.23584
1.08679
-0.878181
-2.11402
1.02821
-0.959927
1.08581
-0.864657
0.00465717
-1.15035
0.658315
-0.380662
-0.277653
0.662972
1.38291
1.50213
-1.50213
0.296591
-0.677253
-0.853755
-0.0178523
1.40076
0.171568
1.02632
-1.37128
-0.698888
-0.399513
1.56788
-0.859986
-2.03185
2.03185
1.26668
1.12376
1.90586
-1.50035
1.16783
-0.379033
1.40535
-1.23902
0.953716
2.16894
1.75592
-0.935039
-0.867531
-0.531529
0.888389
-1.20216
-0.287442
1.4896
0.645494
-1.84765
-0.078118
-1.41644
2.06194
-1.40328
-1.3192
0.0164182
1.24093
-0.0941137
0.922242
0.473364
-3.08568
-1.64154
0.783922
1.13491
0.927025
-0.776856
-0.0161517
0.793008
-1.24455
-2.61583
-1.21986
-0.388073
1.66631
2.33583
-2.70867
1.99999
-0.492283
-1.50771
-0.469153
-1.76348
1.90534
2.65758
-0.436482
-0.956163
-0.00733156
0.0150786
-0.007747
0.0105212
-0.0178527
-0.00295596
0.0134771
0.0278049
0.180444
-0.208249
0.293905
-0.63512
0.341215
0.0410769
-0.0414561
0.000379194
0.650956
-0.254275
-0.0285418
-0.0486565
0.0771983
-0.0447
0.0264926
0.00783803
0.0623897
-0.0358972
0.00546529
0.00944728
-0.0149126
0.0147321
-0.00248231
-0.0122498
-0.565898
-0.0408832
0.606781
0.0233106
-0.0195203
-0.00379029
-0.915499
0.65736
0.258138
-0.527419
0.92401
0.027341
0.0137359
0.0358734
-0.00368921
0.00368921
-0.00427348
0.000584262
0.00213829
0.0219096
-0.0240479
0.0226251
-0.0204868
-0.802376
0.567709
-0.015399
-0.0260571
-0.0118873
0.00211467
0.00977262
-0.359883
1.24674
-0.886852
-0.0225915
0.0235722
-0.000980712
0.449209
-0.867652
0.418443
-0.0485442
0.0741744
-0.0256301
-0.0151833
0.0185764
-0.00339315
-0.0261764
0.0109931
0.0189909
-0.000414496
0.000481656
-0.0302849
0.0298032
-0.00975299
0.0122396
-0.00248664
-0.0135576
0.0139368
-0.0232873
0.00877437
0.0145129
-0.000662206
-0.0119342
0.0207085
0.044338
-0.610236
0.0283567
0.034033
-1.26108
0.345582
-0.0127824
0.00934751
0.00343493
-0.0194398
0.00665735
0.465599
0.119565
-0.585164
0.384716
0.080883
0.782537
0.353472
-0.0326228
-0.320849
0.0358821
-0.000137857
-0.0357442
0.0169999
-0.0323989
-0.0325368
-1.20576
0.699637
0.50612
-0.283515
-0.499362
-0.119226
0.618589
-0.773218
0.746652
-0.00463508
-0.00765195
0.012287
-0.637223
0.828781
-0.78537
0.290184
0.495186
0.00873991
0.0329518
-0.0416917
-0.0306495
-0.000414984
0.0310645
0.568621
-0.169903
-0.398719
-0.138172
0.706793
1.51794
-0.655803
0.446699
-0.0362025
-0.00337661
-0.530253
0.519157
0.0110959
-0.637
0.753424
-0.0207124
0.00119204
0.00619944
0.024865
-0.0170997
-0.0181407
0.0352404
-0.0302408
0.0131411
0.0118065
-0.0299472
-0.0317935
0.100841
-0.0624586
0.0672754
-0.00481681
-0.0942521
1.15604
-0.1162
0.289254
0.866784
-0.147889
-1.31623
-1.00164
-0.0220162
0.0117957
0.0102205
-0.0132242
0.0244067
-0.0111826
-0.00145399
-0.0211375
2.3328
-0.632617
-0.802479
-1.81335
0.778071
-1.31547
0.5374
0.79449
0.726442
-0.432537
0.589029
-0.683143
1.0247
-0.421314
-0.603391
1.69121
-0.666501
1.25843
-0.492632
0.589221
-1.0257
-0.623502
-0.662156
-0.641354
-0.00741902
0.00446306
0.00731307
-0.00742422
0.000763013
0.0182279
-0.0126467
0.00121186
0.0114348
-0.0118837
-0.0448334
0.00758722
-0.00557558
0.00557558
-0.634773
0.27489
1.41937
-0.126091
0.487458
0.197043
-0.834266
-0.630252
0.525886
0.104366
-0.433209
0.0499325
0.778848
0.575819
0.452777
0.84503
-0.961231
0.574804
0.864057
-0.741032
-0.333953
1.12273
-0.788773
-1.04617
0.712219
0.145537
-0.108706
0.112572
-0.0136048
0.553006
-0.539401
0.335974
-1.29214
-0.395055
0.731029
-0.498959
0.26346
0.0658016
-0.329262
-0.119479
0.382939
-0.822182
0.820425
0.42631
0.332992
0.444525
-0.777517
2.28062
-0.778491
-0.0197944
1.06145
-0.434024
-0.627422
-0.687558
0.373888
0.063213
-0.917745
0.854532
-0.790461
-0.727248
-0.045253
0.0170772
-0.0623302
-0.00164385
-1.09766
0.7026
-0.560676
-0.536979
-1.05963
0.09379
0.54696
-0.64075
0.688571
-0.594781
1.04813
-0.789988
0.357551
0.690576
0.284946
-2.31679
2.02986
-1.74491
-0.012783
0.0906891
0.958856
-0.14972
-0.809136
-0.0386771
-1.32697
-0.627331
-0.587255
-0.0475175
-0.00649709
0.0607783
0.370784
0.816483
-1.18727
-0.982696
0.401231
0.816759
-0.279359
-0.0908127
0.725946
0.476668
-1.11464
0.637975
1.22205
-0.0398367
0.092809
0.0511757
-0.143985
-0.0451077
0.00433841
-0.0162221
-0.0557232
0.0169001
-0.412713
-0.182068
-0.067411
0.864105
1.8989
-1.0348
1.03796
-0.306927
0.510537
-0.73637
1.55285
0.780079
-0.33087
0.192823
-0.00306749
0.00306748
-0.00306749
-0.113157
-1.07411
1.02176
-0.754961
-1.28349
0.546423
-0.208737
-0.337686
-1.24307
0.619791
1.54682
1.35014
-2.12863
-0.227093
-0.418854
0.645948
0.319329
-0.0197522
-0.72128
0.377009
1.24379
1.22404
-0.0851016
1.9069
1.31566
-0.0392738
-0.0314357
-0.0426183
-0.960292
1.0178
-0.163264
0.395673
0.104789
-1.05346
0.0155602
1.93944
-0.349286
0.706837
-0.0287309
0.0272769
-0.0261127
-0.00261827
0.0109137
-0.0370264
0.80966
0.600923
-1.00087
0.114018
-0.808047
0.613521
-0.944391
-0.194525
0.0184639
-0.0200644
-0.0278114
-1.8322
-0.285387
-0.00563265
-0.0243146
-0.708611
-0.406032
1.55284
-0.242059
0.591613
0.0294772
1.38959
0.766902
1.24027
-0.612936
-0.209378
0.498936
-0.708315
-0.33533
-0.0265781
0.000845194
0.0257329
-0.0140159
0.011737
0.00227893
0.371018
-0.0175461
-0.414682
0.614775
-0.200093
-0.164049
-0.300608
0.464657
-0.0130997
0.0130997
-0.153834
0.0249562
0.128878
-0.0118707
0.0149893
-0.00311865
0.00562691
-0.0213419
0.015715
0.251533
-0.115043
-0.13649
0.148033
-0.312081
0.0320592
0.00762973
-0.039689
0.0172023
0.0148569
0.0264449
-0.0188151
0.00727568
0.00937373
-0.0166494
-0.00674026
-0.307782
0.273063
0.0347188
-0.313448
0.0521844
0.261264
0.0111137
0.000623305
-0.00486607
0.00486607
0.0146009
-0.00897396
0.00273022
-0.261617
-0.120752
0.382369
-0.491854
0.372628
-0.0118484
-0.00949354
0.0576619
-0.10277
0.137536
-0.294879
0.157343
0.0120248
0.0621495
0.0213913
-0.0194398
-0.00195144
0.0533599
-0.0743062
0.0209463
0.0316005
-0.0143981
0.00755258
0.0120467
0.00537729
-0.0109223
0.00554504
-0.00045227
0.00582956
-0.309826
0.344455
-0.0346295
-0.39792
0.409016
0.0164833
-0.045025
0.0360444
-0.0290261
-0.00701833
0.0525277
-0.0740511
-0.78197
0.674221
0.107749
0.271433
-0.724517
0.453084
0.0152746
-0.0176751
0.00240049
0.534935
0.15564
-0.173203
-0.551314
0.361732
0.288116
-0.567475
0.452549
-0.234594
-0.217955
0.740666
-0.802069
-0.422687
-0.521704
0.0635058
-0.486193
0.0198648
-0.0685213
0.0743872
-0.0167253
-0.0852467
0.00961524
0.011776
-0.00998361
0.0075013
-0.0069165
0.0103514
0.371679
-0.43909
0.552062
-0.180384
-0.668954
0.229864
0.296027
0.349921
-0.345275
-0.311244
0.656519
-0.0492481
-0.00665053
-0.0127893
-0.0222143
0.0155638
-0.549572
0.13489
0.124649
0.0052995
0.00287459
-0.00817409
-0.0322135
0.0392189
-0.00700538
-0.297349
-0.50472
0.388557
0.163505
0.0912079
0.587136
-0.267807
0.0323725
0.0155472
0.0297543
0.0272047
0.0297737
-0.0569784
0.038791
-0.0115863
0.0127616
-0.0152483
0.375016
-0.268927
-0.106089
0.293938
-0.349662
0.0405739
-0.438494
-0.269252
0.344963
-0.213482
-0.131482
0.133053
0.419953
-0.332394
-0.0660245
0.398418
-0.199341
0.353928
-0.298657
-1.08689
1.38555
-0.48981
0.553316
-0.00737457
0.00737457
0.319879
0.124143
-0.444022
-0.00576495
-0.00586535
0.0116303
0.00589152
-0.00647292
0.000581392
0.00528113
0.000610391
-0.00672758
0.00862129
-0.00189371
0.0101985
-0.0086949
-0.00150361
0.383314
0.0544334
-0.437747
0.00351847
-0.00351847
-0.00717805
0.00698135
0.000196699
0.387412
-0.283046
-0.00334677
-0.00975294
-0.402482
-1.16686
-0.297882
2.32973
-0.0784453
0.0904701
0.345763
-0.338421
-0.00734142
0.0128207
-0.00337342
0.000570919
-0.0051892
0.0051892
-0.378405
0.0649567
-0.411028
-0.00396174
0.00927459
-0.00531285
0.167373
-2.04631
1.87894
1.43125
-1.26388
-0.341321
0.406278
-0.0406314
-0.692859
0.73349
0.0169313
-0.0264661
0.00953485
-0.00964679
-0.00236385
-0.117018
0.119382
-0.406697
-0.248282
0.128802
0.228862
0.704841
-0.933702
0.10534
-0.446661
-0.46382
0.56916
-0.00189678
-0.00457614
0.00297241
0.0503875
1.4684
-1.76706
-0.577909
-0.537874
0.766736
0.252059
0.093704
0.212468
0.252188
-0.357611
-0.276385
0.00713303
-0.138848
-0.496459
0.26484
-0.464181
-0.120521
0.385361
-0.014304
0.0103423
0.020529
-0.000608519
1.45002
-0.0187685
-0.0224694
0.0178343
-0.00970774
0.423202
0.0190935
0.00447871
-0.00737267
0.138182
-0.110377
0.281262
0.261118
-0.54238
-0.665631
0.682638
-0.0170073
-0.0606126
-0.605018
-0.00786155
0.00299548
-1.60923
-0.0663077
0.0526907
0.013617
-0.0169212
-0.00875075
0.0256719
-0.0179019
-0.243415
-0.0343732
0.277788
0.0562085
-0.299624
-0.0828379
0.482802
-1.56969
-0.656448
1.13925
0.105797
-0.595608
-0.127541
0.125177
-0.145979
0.0184384
0.444098
-0.0566864
1.07218
0.377843
-0.768162
2.1183
0.304016
0.115755
0.469683
-0.119263
0.366285
-0.247022
-0.0340691
-1.37592
0.838042
-0.221059
-1.15486
-1.00501
0.783949
0.00534384
-0.00534384
0.375806
-0.0612719
-0.314535
0.892508
-0.20987
0.458485
0.0110975
-0.00898283
0.442333
0.261949
0.36848
-1.08483
0.716353
0.00106459
-0.00683847
0.00577389
0.223436
0.391339
1.32734
0.906022
0.23952
0.0439039
0.00245924
0.0414447
-0.00973385
0.0170053
-0.00727144
0.397447
-0.414993
-0.842711
-0.242122
-0.00108745
0.00636858
1.09611
-0.838568
-0.25754
0.797608
0.2985
1.19656
-0.818718
0.00779731
0.104774
0.414577
-0.0161588
0.00345429
0.003639
-0.00709329
-1.64106
-0.419009
-0.0138047
-0.00409716
-0.0144132
-0.00263721
-0.554799
-0.0554368
-0.142778
-0.196641
-0.326849
0.52349
0.974794
-1.01543
0.956026
-0.398379
-0.117118
0.667962
0.330276
0.723213
0.0510355
0.374375
-0.425411
-0.256747
-0.0123711
-0.00615676
0.00615676
-0.024863
0.100641
0.172422
0.379111
-0.579204
-0.623352
0.302503
0.00705852
0.00221607
0.698851
-0.317371
-0.381479
0.551845
0.147005
-0.0203788
0.0149993
0.00537948
-0.000111147
0.249691
-1.75182
-0.0145283
0.00687631
-0.0148793
0.00590536
-0.00819211
-0.0822742
1.00204
0.014537
0.0146713
-0.000134273
0.000367278
0.0681437
0.251735
-0.00922876
-0.00217024
0.0214433
-0.606607
0.395818
-0.410729
1.49617
0.00921718
-0.00864626
-0.0165956
0.00380634
-0.00665413
0.00682301
0.0130116
-0.00189789
-0.00561015
-0.00926917
0.00740145
-0.0139667
0.00521598
0.262419
0.19203
1.30605
-1.0835
-0.558039
-0.937195
-0.642627
0.517979
-0.0247291
-1.39025
0.223708
-0.307623
0.0839146
0.00344515
0.0357737
-0.0281954
0.0377303
-0.0247503
-0.0990381
0.150214
-0.156153
0.0571149
-0.0879432
1.4036
1.00616
-0.338311
0.790829
-0.452518
0.140953
-0.849268
-0.368526
0.730258
0.599396
0.130861
-0.0239559
0.415488
0.0133231
0.000952067
0.14607
0.164509
-0.692512
0.533784
-0.442576
0.0166316
-0.0199784
-0.225747
-0.0214626
-0.314336
-0.533206
0.21887
-0.427409
-0.0016605
-0.0138687
0.0166401
-0.00554265
0.00277143
0.987949
2.1111
-0.0778555
-0.583945
0.691694
0.0801612
0.00611011
0.0449011
0.0422588
-0.0762918
0.0514288
0.99702
-1.28053
1.26583
-1.02631
-1.58587
-0.320034
-0.0150528
-0.821007
0.503636
-0.362523
0.0629242
-0.905635
0.877524
0.259764
-0.116861
-0.142903
-0.0123564
0.0106454
0.00171101
-0.249898
0.0880903
0.161808
-0.00232013
0.29625
-0.29393
-0.00717283
-0.00518357
-0.0296924
-0.26859
0.298282
0.100271
-0.217275
0.117003
0.258638
0.086325
0.256318
0.224103
0.0356611
0.193361
0.102889
-0.163668
0.260301
-0.0966328
0.14065
-0.261402
0.0150317
-0.00456151
-0.0104702
0.00785887
-0.125782
0.273814
0.125751
0.11119
0.112518
0.098323
0.0514269
-0.14975
0.0182117
-0.0158996
-0.00231207
0.00581598
-0.0103775
0.0113378
-0.0078342
-0.00350361
0.0171538
0.00539873
-0.0158689
0.0115702
-0.00617148
-0.237783
0.203154
0.0195066
0.19225
-0.211756
-0.401953
0.188471
0.00450543
0.374606
0.219014
-0.056659
-0.162355
0.207361
-0.200228
0.142568
-0.436498
0.517918
-0.126579
-0.123534
0.223806
-0.258835
0.224766
0.0114558
0.00569797
0.0130827
-0.0016269
0.0135568
-0.464115
0.195525
0.321547
0.196371
0.0153708
0.0207526
-0.0361234
0.01113
-0.0270296
0.0265008
0.00316908
-0.00593162
0.00276254
-0.0109882
0.0317407
0.0339129
0.00110084
0.00954455
-0.302152
0.182889
0.183556
-0.485708
-0.177327
0.429515
-0.282435
0.286927
-0.00449158
-0.304701
0.255452
-0.165721
0.22193
-0.21964
0.203481
0.669752
0.0539065
-0.723658
-0.0423297
-0.779853
-0.0348016
0.0232153
-0.426315
0.402359
0.364514
-0.339034
-0.00846037
0.347495
0.646595
-0.151409
0.198558
0.448037
-0.028008
0.0537009
-0.0256929
0.0491903
-0.0239278
0.00511268
-0.0189464
-0.00498146
0.00705687
0.00314164
0.00241285
0.00464402
0.00794089
-0.00354013
-0.00440075
0.00900548
0.0024065
-0.0024065
-0.00427348
0.0063789
-0.0063789
0.0522786
-0.179926
0.127647
0.150602
-0.775643
0.00214428
-0.0070233
0.00487903
0.00209849
0.00548396
-0.00758245
0.0672433
-0.00648442
0.00648442
-0.00410295
-0.00238147
-0.00410295
0.00227594
-0.0200817
0.200394
-0.180313
-0.0986228
-0.125753
0.224376
-0.0108865
0.00734633
-0.00871568
0.00633421
-0.00643974
-0.010812
0.00575917
0.00505284
0.241645
-0.113838
-0.127807
0.101927
0.139717
-0.00762965
0.00781591
-0.000186263
-0.00417536
-0.353789
0.00503144
-0.00503144
1.51396
0.487646
-0.121133
-0.149521
0.270654
0.275359
-0.382846
0.107487
-0.0766242
-0.152691
-0.151245
0.303936
0.00636946
-3.52505e-05
0.0021941
0.100782
-0.793641
-0.398153
0.498935
0.0981499
-0.213192
0.00867852
0.011091
-0.00999014
0.00435072
-0.000874933
-0.00596354
0.00669611
-0.00674489
4.8774e-05
0.00560866
-0.00616349
-0.0304223
0.188592
-0.00428041
-0.00428041
-0.00419138
-8.90328e-05
0.35148
0.445946
-0.797425
0.145591
0.00876106
-0.00512206
-0.00299611
0.0873157
0.0120308
-0.00652039
-0.00551043
-0.00460072
-0.00628574
0.00602857
-0.00728814
0.00125957
-0.0120406
0.00384848
-0.00613524
0.18945
-0.154731
-0.0582486
0.00936264
-0.00936264
0.597248
-0.892182
0.294934
0.160233
0.0731138
-0.233347
0.32736
-0.20429
-0.12307
0.24527
0.0820897
-0.122457
0.00748237
0.0033867
-0.0108691
-0.0132252
0.00225722
0.0109679
-0.00935259
-0.00387257
-0.00456024
0.0211918
-0.0112921
0.0112921
-0.00642605
-0.00461839
0.0573091
0.0311553
0.0165021
-0.210783
0.194281
-0.163424
-0.08664
-0.323676
0.676193
-0.352517
-0.659006
-0.518053
0.485831
-0.102517
0.28919
-0.0202716
-0.162768
-0.432839
0.330475
-0.493243
-0.0156129
0.000700308
0.0112745
-0.0124142
0.00113974
0.45533
-0.0908157
-0.00866857
0.00661586
-0.00292665
0.0586624
0.127347
-0.374369
-0.00567107
0.0127797
-0.00710859
-0.107021
-0.0369641
0.090271
-0.118584
0.0283126
0.0945183
-0.00424727
0.399872
-1.05632
0.415381
0.260687
-0.676068
0.815254
0.184469
0.191337
-0.0387535
0.312568
-0.243044
0.121668
-0.893757
-0.117293
-0.207206
0.0899132
-0.109056
0.00788395
-0.0104819
0.002598
-0.00489914
0.00853564
-0.0036365
-0.00863761
0.00933792
-0.0151293
0.0064917
-0.0113045
-0.0038248
0.437346
-0.382913
0.110497
-0.00998455
0.0122418
0.0010586
-0.0110431
0.142477
-0.01483
0.206861
-0.0643836
-0.00882222
0.00681668
0.00200555
0.595519
0.504704
0.00173717
0.250322
0.16197
0.00456187
-0.0108361
0.00627427
-0.00721273
0.00998416
0.692705
-0.267105
-0.4256
0.455373
0.530365
-0.0749918
0.728922
0.394426
-0.21087
0.577315
0.137099
-0.569938
-0.802957
0.0247449
-0.0238997
0.0201846
-0.00986775
-0.0140319
2.06494
-0.0350846
-0.952782
1.96844
0.294553
1.32046
0.36768
0.0129081
-1.75182
0.0106956
-0.00829508
0.0114125
-0.00453617
-0.30312
0.298629
-0.248027
-0.0096867
0.00382136
-0.00472129
-0.00496541
0.00585948
-0.0079683
0.00210882
-0.2305
0.14386
0.197735
-0.0034536
0.182905
0.00871374
0.000807712
-0.00952145
0.00898683
-0.000273095
1.27728
0.112701
-0.249562
0.355387
-0.105826
0.126074
-0.375636
-0.462219
0.401606
0.0127944
-0.0268946
0.612781
-0.194338
-0.355074
0.282088
0.0729862
-0.291721
-0.0633536
0.368413
-0.248741
0.0122438
0.242984
-0.00669944
0.00897836
0.00464541
-0.00899613
0.00229669
-0.00532931
0.0310622
0.0179567
0.0443735
-0.0327845
-0.123369
-0.139805
0.0670554
0.311707
0.188339
-0.151134
0.0372051
-0.0664196
-0.25334
0.31976
-0.870589
0.384396
-0.137308
-0.011878
-0.0015357
-0.016784
-0.529481
0.246435
-0.286497
0.340139
-0.494169
0.0247826
-0.0127359
0.0129342
-0.454366
-1.28834
0.499568
-0.862031
-0.135241
0.380511
-0.0288476
-0.1764
0.205248
0.0574682
-0.169032
0.111563
-0.0767764
0.134245
-0.140099
0.179248
-0.039149
-0.168947
0.173149
-0.0547363
-0.118413
-0.0684272
0.166195
-0.0977673
-0.0216859
0.0731129
0.0484522
0.122727
-0.17118
-0.060538
-0.0467258
0.107264
0.0109488
-0.0367634
0.0258146
-0.0267929
0.0377417
0.0912507
0.00963229
-0.100883
-0.0799993
0.125702
-0.0457026
-0.157848
0.101189
-0.207631
0.0312306
-0.0526701
0.198261
0.229492
-0.17782
0.101196
-0.0112325
-0.166588
-0.105751
0.0359323
0.0698189
-0.0453713
0.118485
-0.151123
0.154417
0.166879
0.057224
0.00978312
0.00178709
0.00459955
-0.112199
-0.028802
0.141001
-0.108591
-0.0604411
-0.0141065
0.0117944
0.00528501
-0.0193915
-0.1591
0.303703
-0.144603
0.255733
-0.152844
-0.343896
0.104027
0.239869
-0.162482
-0.181413
-0.0310415
-0.0106501
0.0161846
0.036343
0.00527638
0.0162252
-0.0215015
-0.0146501
-0.00348929
0.0181394
-0.21549
0.0530075
-0.0957761
0.223123
-0.311266
0.276131
-0.000665392
-0.00897367
0.00963906
0.393479
0.140305
-0.175524
-0.429494
-0.362566
-0.0937091
0.456275
-0.354161
-0.00840501
0.0141235
0.0872963
-0.10142
-0.100291
0.17011
-0.0379258
-0.113197
-0.104784
-0.0956372
0.200421
-0.00419138
0.0728323
-0.151811
0.171318
0.110097
-0.0616448
0.0669275
0.118217
-0.185144
0.168855
-0.109336
-0.0272691
0.136605
-0.015109
0.0851596
-0.0700505
-0.00672282
0.00672282
-0.00169139
-0.00514216
0.00514216
-0.129932
-0.0239022
0.0009335
-0.00607566
0.102799
-0.110447
0.00764897
-0.0504608
0.102503
-0.0520424
-0.00786155
-0.00113872
-0.0112514
-0.146597
-0.134838
0.214155
-0.0793174
-0.0223713
0.132468
0.00677145
0.00221538
0.00940054
0.10027
-0.109671
0.0714682
-0.102435
0.222318
-0.119883
0.0634785
0.00485687
-0.00675365
-0.0119248
0.204174
-0.065164
0.166353
0.0090905
-0.00331661
0.00692066
0.00216983
0.00550448
-0.00550448
0.0664188
0.0530438
-0.119463
0.133474
-0.145204
-0.000825348
-0.00799688
-0.00823999
0.00157555
0.00666444
-0.000803545
-0.00743645
-0.0103277
0.00551525
0.00481247
-0.0891235
0.19032
8.97467e-05
0.00672693
-0.00907025
0.00840486
0.102509
-0.0293957
0.172569
-0.0941306
-0.0784381
0.0635128
-0.00654724
0.00745388
-0.000906639
-0.317177
0.0208687
0.296309
0.00590945
-0.00678438
0.00989286
-0.0446944
-0.0218377
0.0317306
-0.18673
-0.588914
-0.548149
-0.245492
-0.00560807
-0.00470198
0.00470198
0.0008736
0.113623
-0.419936
0.306313
-0.00643071
0.00124152
-0.00643071
-0.0164903
0.0164903
0.00626536
-0.000987155
-0.0052782
-0.0129081
0.111495
-0.165184
0.064308
-0.0067299
0.000182659
0.0168681
-0.00938572
0.00789442
0.0026451
-0.113521
-0.0671026
0.180624
-0.0102211
0.00378133
-0.00473711
0.00978607
-0.0511666
-0.0574239
-0.175005
0.123838
-0.0354546
-0.13955
-0.0385544
-0.182658
0.221213
0.0354721
-0.352649
-0.258913
0.294385
-0.0783149
0.161082
-0.0827671
0.0468621
0.00544001
0.0868352
0.101184
-0.0333745
-0.0233312
0.0567057
0.0141951
-0.00190812
0.00178093
-0.00216803
-0.202869
0.230558
-0.0276889
-0.536046
0.110446
-0.691761
0.548771
0.14299
0.0111456
-0.00691134
-0.00423424
-0.0010861
-0.00609195
-0.00707169
0.00155163
0.00552005
0.0040384
-0.000495072
-0.00354333
-0.00303329
0.00538143
-0.00663783
-0.00119782
0.00118587
-0.00541359
0.00422772
0.16532
-0.270104
-0.00407453
-0.0121591
0.00808457
-0.00687409
0.00356669
-0.096189
0.000853842
0.0070301
-0.128325
0.194454
-0.0661299
0.00722576
-0.000244409
-0.00268423
0.00990999
-0.00975294
-0.0149942
0.00524126
-0.073777
0.0457234
0.0280536
0.00563157
0.00960554
-0.0152371
0.00608594
-0.000477277
0.00130979
0.00477614
-0.145871
0.187
0.00842842
-0.00842842
0.0019977
-0.00328626
0.0104034
-0.00305703
0.00965236
0.000750993
-0.0120445
0.00679974
0.00524476
-0.00321597
-0.00882853
-0.313486
0.110617
-0.187412
-0.00911866
0.0110963
-0.00197766
-0.00744062
-0.00167804
0.00625944
-0.0885337
0.0965102
-0.0899372
0.665756
-0.307907
-0.203337
0.511244
-0.351029
0.0490035
0.302025
-0.179963
-0.00431973
0.0103578
-0.00603811
0.00346537
-0.00608531
0.00261993
0.00698384
0.00279246
0.010209
-0.00682228
0.00805372
-0.00623389
0.00794491
0.00849226
-0.00849226
0.00346082
-0.0213652
0.00985187
-0.00697728
0.00904833
-0.334793
0.217932
0.00166589
0.120517
-0.122183
-0.0082178
0.0082178
-0.00302861
0.0112843
-0.00388289
-0.0131428
-0.00624868
-0.665735
1.03341
-0.011934
0.329122
0.125434
0.203687
-0.0739954
-0.242119
0.316115
0.273767
-0.0432095
0.199772
-0.0113948
0.00241202
-0.011506
0.185056
-0.0969655
0.149601
-0.223086
-0.15255
0.00921374
-0.2323
-0.175628
0.190977
-0.0153492
0.421231
-0.308713
0.134734
-0.136484
-0.283452
-0.00275721
-0.00883815
0.0115954
-0.230123
-0.612969
-0.0133407
0.0142927
-0.0855791
0.442818
-0.357239
-0.327698
-0.0149942
0.00822041
-0.00219184
0.00124312
0.628341
-0.81507
-0.923275
0.158296
-0.0258283
0.0798584
-0.291376
-0.146372
0.0891351
-0.0116868
0.00526076
-0.00869133
0.000286466
-0.23828
-0.185551
0.232413
0.0210417
-0.00114894
0.779997
-1.37348
-0.235751
-1.69351
-1.20587
0.138294
0.0337253
-0.172019
-0.00201101
0.00755605
-0.00633074
0.0133856
0.00308882
0.0102968
-0.145394
0.0321222
-0.00604678
-0.00478936
0.0051491
-0.224798
-0.00816759
0.00513898
0.00692607
-0.010142
-0.00652073
-0.00652073
0.00169707
0.0119387
-0.00878488
0.00315384
1.02453
-1.05126
-0.0428848
-0.20524
-0.0163889
-0.0180158
-0.0187627
0.00114021
-0.0178013
0.0166611
0.00955921
-0.00641757
-0.0669926
-0.161341
0.228333
-0.0174577
-0.00292106
-0.432369
0.00369367
0.428675
-0.132169
0.0942429
-0.132672
0.0194752
-2.09449
2.21368
-0.126047
-0.00994657
0.00534585
-0.00146902
-0.00847755
0.000303453
-0.100818
0.100514
-0.109033
-0.0866941
0.0246049
-0.0147371
0.0205743
0.00475075
-0.00475075
0.0182992
0.0236787
0.0241921
0.641564
0.804189
1.42007
0.158543
0.222851
0.00279864
-0.0100868
0.00814985
-0.00535121
0.00722476
0.00131088
0.00950436
-0.0101648
-0.00869454
0.00869454
-0.00131997
0.110572
0.0479912
-0.158563
-0.0848226
0.132814
0.11854
-0.0654961
-0.0442999
-0.0300063
-0.0776744
-0.258841
0.526647
0.0341631
0.18858
-0.545093
-0.283144
0.170239
-0.204199
0.374438
-0.297908
-0.11249
-0.0240539
-0.023991
0.0480448
0.00839269
0.0391001
-0.0474928
0.0261979
-0.0312541
0.0050562
0.0166512
0.00954678
0.00202586
0.0146253
0.00636952
0.0824777
-0.0888472
-0.0620346
0.0258446
0.03619
-0.0374531
-0.0589185
0.0963716
-0.0137872
-0.0959691
0.109756
0.048055
-0.063164
-0.00224522
0.00224522
-0.0908091
0.0440832
-0.00218074
0.00218075
0.0926372
-0.140095
0.0474581
-0.07885
0.107305
-0.0284546
-0.0024256
0.00242563
-0.0263469
0.0254277
0.000919143
0.00191759
-0.00191762
-0.0546185
0.141454
0.12463
0.132261
0.00919226
-0.105854
0.00988447
-0.0264078
0.0898864
0.0997708
-0.0692593
0.0318062
-0.11203
0.0427708
-0.0190752
0.0905434
0.0806956
0.00300416
-0.00300405
-0.0059745
-0.155366
-0.119495
-0.143191
0.0132597
0.0677718
-0.0614983
-0.00627345
0.0723236
-0.0631313
0.106732
0.196971
-0.128989
-0.0280246
0.157014
-0.0222577
-0.0683418
0.00284566
0.000922191
-0.069264
0.111535
-0.0683127
-0.0432225
0.00293402
-0.00561825
-0.00589451
-0.00897357
0.000278666
0.000626741
-0.00960031
0.0036855
-0.062604
0.133007
0.137647
0.121082
-0.347247
0.0883343
0.00552117
-0.00245369
0.00552117
0.0475503
0.0106645
-0.0582147
0.00212958
0.0666141
-0.0687437
-0.0722724
-0.00150462
-0.0765196
0.00807059
-0.00311221
-0.00495838
-0.12811
0.0775777
0.0505318
-0.131118
0.2522
0.00652982
0.380968
-0.0995901
0.112226
-0.0878213
-0.0244044
-0.0557284
-0.123283
0.179012
0.0693231
-0.125051
0.0610488
-0.0589193
0.0863738
-0.0767415
0.0181764
0.0380547
-0.0562311
-0.00956124
0.00389017
-0.00696324
-0.070235
0.0766045
0.0058744
0.00219619
-0.00294764
-0.00738008
0.00766149
-0.0316992
0.074356
-0.0426568
0.0140462
-0.0457454
-0.112106
-0.0280403
0.185333
-0.337883
-0.00487313
0.00183984
0.111043
0.023202
0.00778135
0.103261
-0.0617825
-0.0703862
-0.044335
-0.0837745
0.0678906
-0.0764029
0.156261
-0.0793857
0.0032119
0.0761739
0.0204906
0.0699795
0.337017
-0.291557
-0.0454598
0.393072
-0.0560547
0.0776843
0.0833977
-0.0776818
-0.0360978
-0.245486
-0.0460708
-0.592816
0.533331
0.0594854
0.305599
-0.577541
0.271943
-0.287217
0.0703846
-0.0297114
-0.0406732
-4.23239e-05
0.0202269
0.0310199
0.0213672
-0.0444327
-0.0604654
0.104898
-0.00782559
-0.000171284
-0.000371719
0.0380464
0.0801035
-0.11815
0.287317
-0.343372
0.541236
-0.253919
-0.0312215
0.0093838
0.0518974
-0.0586656
0.00676817
-0.00795469
0.108469
-0.0410211
-0.204465
0.00719093
0.00719093
0.0262508
-0.049582
0.0456956
-0.0194448
0.0583842
0.0513721
0.228207
-0.0110182
0.0633093
-0.0522911
-0.00198923
0.00198931
-0.00339055
0.0391297
0.0127677
-0.021197
0.021197
-0.00750714
0.00422088
-0.00657364
0.00859427
0.00181884
-0.0104131
0.00119912
0.00739515
0.0958083
0.10359
0.72119
-0.568958
-0.152233
0.99608
-0.24321
0.537762
0.547426
-0.526558
0.304217
-0.025193
0.0727432
-0.0856584
-0.254019
0.663574
-0.409555
-0.179677
-0.156593
0.33627
-0.305697
0.12602
0.121954
-0.142035
-0.104411
0.115565
-0.0439659
-0.071599
-0.0519807
-0.380388
0.00752383
-0.00626426
0.00780821
0.00497144
0.00843495
0.00871362
-0.00564992
-0.00503953
-0.0118417
0.00473313
-0.00833911
-0.00350262
-0.0526553
0.11104
0.0345199
-0.227545
0.332921
-0.105376
-0.0861634
0.0067777
0.00877511
-0.0545697
0.0457946
-0.00768086
-0.00643773
0.154815
-0.131661
-0.0231542
-0.0208129
-0.00218389
0.082955
-0.0807712
-0.106594
0.00669122
0.00549339
0.0620207
0.138374
0.286034
-0.224014
0.00805379
-0.00785709
0.00243554
-0.00345897
-0.416112
-0.034936
-0.381176
-0.387585
0.0397325
-0.0207852
-0.150999
0.171785
-0.129818
0.000197245
-0.130015
0.0216747
0.0240209
0.10529
-0.128492
0.0508061
0.0776859
0.103576
0.0400869
-0.143663
-0.0652845
0.16886
-0.2148
0.0333546
-0.0632165
-0.0144578
-0.0603709
-0.0594487
-0.00571428
-0.201743
0.207457
0.00661823
0.0001087
-0.00123886
-0.00598325
0.000478609
-0.00646186
-0.0105057
0.00445888
0.0406712
-0.0501379
-0.106608
0.0564696
0.115127
0.218096
-0.333223
0.280447
0.0127584
-0.00778692
0.0162287
-0.204305
0.0812351
0.00471913
-0.0995198
0.0948007
-1.97793
-0.0277725
0.0120644
0.00652173
-0.00541229
0.942703
-0.444345
-0.498359
-0.0013391
0.00291037
-0.00157127
-0.0795863
0.0716316
-0.0710037
0.466759
0.00907491
-0.00776403
-0.0107175
0.000630716