/*--------------------------------*- C++ -*----------------------------------*\
| =========                 |                                                 |
| \\      /  F ield         | OpenFOAM: The Open Source CFD Toolbox           |
|  \\    /   O peration     | Version:  4.1                                   |
|   \\  /    A nd           | Web:      www.OpenFOAM.org                      |
|    \\/     M anipulation  |                                                 |
\*---------------------------------------------------------------------------*/
FoamFile
{
    version     2.0;
    format      ascii;
    class       volVectorField;
    location    "1590";
    object      U;
}
// * * * * * * * * * * * * * * * * * * * * * * * * * * * * * * * * * * * * * //

dimensions      [0 1 -1 0 0 0 0];

internalField   nonuniform List<vector> 
5497
(
(9.71625 -0.190124 -1.40859e-16)
(7.02268 -0.0260681 -1.6709e-17)
(10.1976 -1.6532 0)
(9.9553 -0.534907 9.77433e-18)
(6.46681 0.344683 -2.07296e-17)
(9.25398 -0.266176 0)
(9.17379 0.263621 -4.2504e-17)
(11.3705 -1.16254 2.21315e-16)
(10.095 -0.388868 -3.21373e-16)
(6.47235 0.112053 7.87973e-16)
(11.3794 -1.51016 -3.44237e-16)
(10.7253 1.08311 1.73045e-16)
(9.48461 0.43534 0)
(6.45568 -0.177226 -5.64889e-16)
(10.8747 1.43531 0)
(9.02168 0.0607475 2.52749e-17)
(5.67961 0.0426263 0)
(10.2531 0.0956446 2.80815e-17)
(7.33907 -0.142216 -2.23327e-16)
(10.4074 -0.238843 -6.14771e-17)
(6.47869 -0.119768 -1.51171e-16)
(5.83354 0.0242332 -2.12792e-16)
(6.21589 0.143086 0)
(6.43656 -0.0903604 -5.07772e-17)
(6.2206 0.151003 3.34575e-16)
(9.12654 -0.0754797 -2.12205e-17)
(9.00107 0.0667711 8.13726e-17)
(10.0642 0.42063 2.65647e-18)
(9.01065 -0.0163332 -9.48131e-20)
(9.59067 0.0648797 -1.84445e-17)
(6.15487 0.0575158 -4.1335e-17)
(9.15527 -0.042333 0)
(10.161 -0.0153723 -1.38578e-17)
(6.87816 -0.0200482 1.14192e-16)
(9.56144 0.122438 5.71634e-18)
(9.54471 -0.199231 1.30858e-16)
(8.51044 -0.029713 3.19527e-20)
(10.4917 0.018955 -2.6496e-17)
(8.67765 -0.00833592 0)
(10.3329 0.129166 -1.46036e-17)
(5.98497 -0.100536 0)
(9.39536 0.0178141 0)
(8.9952 0.00230913 0)
(6.05598 -0.0434832 1.11938e-16)
(9.76413 0.199317 -5.70572e-17)
(9.36985 0.167608 0)
(7.16407 -0.132175 3.73868e-16)
(10.2234 -0.138734 5.40181e-18)
(6.49813 0.0357106 -1.13951e-17)
(10.1646 -0.209698 1.46004e-17)
(10.306 -0.257413 -2.80142e-17)
(8.58893 -0.193457 9.7462e-18)
(5.97075 -0.177943 0)
(10.774 -0.241143 -2.80442e-16)
(9.23562 -0.206698 1.74335e-16)
(8.94455 -0.271224 0)
(5.91669 -0.0261887 0)
(10.8086 0.152981 2.03015e-16)
(9.09581 0.208126 -1.23993e-16)
(9.22654 -0.111146 0)
(9.30782 1.31289 -3.79131e-17)
(9.53418 0.443714 0)
(9.28732 -0.285931 0)
(7.61126 0.203657 -2.19322e-17)
(9.88309 -0.0316968 -6.56878e-17)
(5.95909 0.00218072 -1.31518e-16)
(10.1649 -0.027416 1.73812e-17)
(9.10931 -0.158578 4.94115e-17)
(10.0719 0.0498808 0)
(10.3516 0.0969564 0)
(7.57387 -0.128897 -2.0247e-16)
(10.3642 0.0218398 0)
(9.02189 -0.00869184 0)
(9.06753 0.0343655 0)
(8.82567 -0.0626311 -4.83872e-17)
(10.107 0.120502 8.79519e-17)
(9.30902 0.0303159 1.27708e-16)
(7.27076 0.144251 0)
(9.65813 -0.148158 0)
(10.4741 -0.152581 1.86793e-17)
(8.94377 -0.132961 -1.02337e-16)
(9.64852 0.131427 3.93787e-16)
(7.2901 -0.146143 -4.21457e-16)
(9.55835 0.0733242 1.47863e-17)
(10.7036 1.4257 5.49445e-17)
(10.3437 0.137162 -5.86547e-17)
(10.5991 0.275627 5.88483e-17)
(7.27294 -0.0454798 0)
(10.7168 0.0518655 0)
(9.86431 -0.11611 0)
(7.34588 -0.336757 0)
(8.93236 -0.149708 -5.69636e-19)
(9.95887 0.0778768 -2.93993e-17)
(9.31774 0.0609136 0)
(9.05272 0.0304024 -3.58495e-18)
(8.95889 0.0779984 1.00239e-18)
(9.03021 0.0706468 0)
(9.32902 -0.162725 -6.44876e-18)
(10.1205 -0.178752 1.10543e-18)
(9.21596 -0.155037 0)
(6.2889 -1.35984 -6.63353e-19)
(3.64885 -0.549755 0)
(9.17135 0.151962 2.29614e-17)
(9.03545 -0.171274 2.39152e-18)
(9.02586 -0.166192 7.60661e-19)
(6.60692 -1.4605 -3.64654e-19)
(10.0678 -0.133839 0)
(6.92365 -1.56 -2.93782e-17)
(3.32107 -0.381567 -1.17346e-17)
(8.90317 0.0230492 5.86768e-18)
(8.90498 0.033898 -3.52221e-18)
(10.1259 0.0303404 0)
(10.3298 0.0392212 0)
(9.06003 0.0424312 -1.66954e-17)
(6.51924 -2.37849 0)
(8.92907 0.0252979 0)
(9.05381 0.135744 4.23339e-18)
(8.93708 0.0327452 -1.09772e-17)
(9.05016 -0.0177355 0)
(8.89949 0.0364297 5.08118e-18)
(10.2077 -0.0725889 -2.95158e-17)
(10.4641 -0.0564498 2.93574e-17)
(9.57918 -0.176728 5.06311e-18)
(8.98488 0.0457472 1.43935e-18)
(6.3305 -1.13417 -5.39606e-17)
(9.42883 -0.121345 -1.5077e-17)
(9.97766 -0.103949 5.09082e-18)
(9.10788 -0.139369 0)
(10.0494 -0.14458 0)
(8.88716 0.0416057 -2.03164e-17)
(9.0276 -0.0040814 7.4637e-18)
(9.16758 0.0171386 -7.97384e-18)
(9.00522 0.0706838 1.85037e-17)
(9.68348 -0.197015 0)
(9.25927 0.0736089 9.1133e-18)
(8.93969 0.0776483 3.0143e-17)
(9.01121 0.0431571 0)
(8.93342 0.0711944 -4.09648e-18)
(8.98948 0.0552631 -3.38588e-17)
(9.1401 -0.152319 1.80972e-18)
(9.02259 -0.172353 -2.04806e-18)
(9.29926 -0.282539 -2.16954e-18)
(10.6239 0.0781519 7.97284e-18)
(9.32859 0.0316292 -9.46179e-18)
(9.12179 0.18406 -2.67514e-17)
(9.04142 -0.147569 -5.69089e-19)
(9.21112 0.207854 -8.9082e-18)
(9.13606 -0.125248 0)
(8.92191 -0.155444 0)
(9.81558 -0.0682506 0)
(8.72007 0.0364912 -2.13494e-17)
(9.29953 0.0350365 1.034e-17)
(9.3066 0.0190348 2.12953e-17)
(9.487 0.0442315 1.00609e-17)
(9.0754 -0.17352 0)
(10.1231 -0.130982 -8.89377e-20)
(8.23012 0.350728 -1.69004e-16)
(7.52452 -0.324683 9.21508e-17)
(9.00376 0.0319005 3.55477e-19)
(9.4017 0.0368527 -1.00495e-17)
(9.03016 0.0263573 -4.30697e-17)
(9.06772 -0.00769783 0)
(9.02285 0.0159551 1.54277e-17)
(9.0588 0.0230452 6.58029e-18)
(9.70053 -0.150615 1.8984e-16)
(9.51903 -0.160511 0)
(9.35545 0.0749162 1.80092e-16)
(8.90558 -0.338987 2.07288e-17)
(10.09 -0.38488 0)
(10.4693 -0.146065 -2.47446e-18)
(8.42363 -0.327128 -2.82782e-16)
(9.05848 0.153649 0)
(10.0182 -0.065001 2.47768e-18)
(10.2686 -0.0769287 0)
(10.2297 -0.0338353 -2.33163e-18)
(10.033 -0.117936 0)
(8.21365 -1.02971 -1.23997e-16)
(9.13754 -0.936973 3.97948e-17)
(9.57932 -0.124766 5.79551e-20)
(10.177 -0.161287 2.00822e-17)
(10.1357 -0.124978 -6.01601e-18)
(9.68862 -0.144822 -5.17991e-18)
(9.5381 0.103143 0)
(10.9449 0.262553 7.5739e-19)
(9.68357 0.00301982 -9.65138e-19)
(10.7831 0.376151 0)
(6.98716 -1.28002 3.97033e-17)
(7.2753 -0.798703 0)
(10.2418 0.0167698 -1.47267e-17)
(10.4883 -0.137687 1.53571e-17)
(10.0067 -0.317057 2.84129e-17)
(10.2615 -0.229654 -1.19975e-17)
(10.4053 -0.176605 -1.40892e-17)
(10.4327 -0.0647257 1.62495e-17)
(10.3246 -0.0294431 7.41143e-17)
(10.4065 -0.131073 -2.89813e-19)
(10.4913 0.115671 -7.06163e-17)
(8.99418 -0.151909 0)
(8.62391 -0.159695 0)
(8.68641 -0.190208 0)
(9.56648 0.0795992 2.2584e-17)
(6.68847 -0.225102 -2.62692e-16)
(8.73339 -0.1087 -1.47065e-17)
(9.02376 -0.0935474 -2.4866e-17)
(9.47283 0.109493 -6.34502e-17)
(9.84617 -0.0909424 2.23027e-18)
(9.19884 -0.164699 0)
(9.05138 0.0202118 3.8789e-18)
(9.23341 -0.0385482 0)
(8.96406 0.0186699 5.81676e-18)
(8.94937 0.0321858 0)
(7.00247 -0.0829224 0)
(9.31331 0.0653075 8.42714e-18)
(9.19168 0.0919203 0)
(9.88614 -0.423911 -8.37789e-17)
(10.1619 -0.218355 1.01639e-17)
(9.03793 0.0459351 -1.47235e-17)
(9.04725 0.0306478 3.52498e-18)
(9.0322 0.0307097 -1.81345e-19)
(9.05099 0.0385271 -1.06374e-18)
(8.758 0.134627 1.10447e-16)
(10.0919 0.126606 -3.18745e-17)
(9.39043 0.075326 0)
(9.2098 0.140368 -1.6315e-17)
(9.38972 0.0964221 3.41515e-17)
(9.34247 0.0898683 -9.17376e-18)
(9.7816 0.110535 0)
(9.81889 -0.12317 -1.26578e-18)
(9.25132 -0.145936 1.92873e-18)
(10.232 0.0735953 0)
(10.3181 0.0184348 1.38435e-17)
(10.3291 0.0478568 4.09933e-18)
(10.7842 -0.0435303 3.4246e-17)
(9.55601 0.142998 3.02873e-17)
(9.85158 0.0337515 -1.22061e-16)
(9.92208 -0.104513 0)
(9.61937 0.030631 4.10991e-18)
(9.29487 0.0165735 0)
(9.81337 -0.126302 0)
(8.96974 0.0589384 1.52976e-18)
(8.92827 -0.0148551 1.83375e-17)
(9.9436 -0.0891573 2.09605e-17)
(10.2925 0.101659 1.7603e-17)
(8.72385 -0.0538887 -8.39878e-17)
(9.01024 0.0121958 0)
(9.0362 0.0134109 -3.45804e-18)
(9.29807 0.259936 1.27635e-17)
(9.53847 0.251869 -3.72518e-17)
(9.01094 -0.0893969 0)
(9.2193 0.26109 4.30284e-17)
(9.39892 -0.0692521 0)
(9.63983 0.181539 0)
(9.50431 -0.521722 0)
(9.11193 -0.476211 -1.0912e-17)
(10.2239 -1.01953 -3.24846e-17)
(10.2779 -0.636159 6.18158e-17)
(10.4395 -0.39613 0)
(10.8221 -0.869744 1.52756e-16)
(8.75855 0.0344108 6.27696e-18)
(6.07433 -2.41442 -1.86046e-17)
(6.0111 -2.41176 5.60937e-18)
(5.99487 -2.52604 3.43487e-18)
(7.95096 -0.351689 3.4777e-17)
(8.87951 -0.170779 -1.07574e-19)
(5.953 -1.28566 6.12022e-18)
(9.05168 0.173783 2.05798e-18)
(6.53919 -0.115118 -2.08376e-17)
(6.79686 -1.67447 -1.61753e-17)
(6.67849 -1.62005 -7.49061e-18)
(6.78395 -1.94693 -1.13876e-17)
(5.77585 -2.13715 7.555e-18)
(5.876 -2.35951 -7.00219e-18)
(9.08433 0.226864 1.12579e-17)
(5.72038 -1.20443 0)
(9.01883 0.120758 5.20635e-19)
(8.77624 0.0931303 0)
(6.01143 -1.42568 1.17648e-17)
(6.13929 -1.46522 2.29686e-17)
(3.52404 -1.02607 0)
(5.0071 -1.23784 -6.96964e-18)
(5.69794 -0.687432 0)
(5.58254 -0.731717 1.94913e-17)
(8.8784 -0.179841 0)
(5.94249 -1.12453 -2.18797e-17)
(5.9697 -2.70689 0)
(9.09793 -0.109488 2.09793e-17)
(6.64971 -3.39566 7.04278e-18)
(9.18473 -0.200542 -4.63609e-17)
(7.22772 -1.54185 0)
(5.79481 -1.67135 5.71407e-18)
(5.83435 -1.54218 0)
(5.86744 -1.78482 -1.04663e-17)
(6.27056 -2.41977 3.7774e-18)
(5.73308 -1.44975 0)
(5.82673 -1.35848 -1.23057e-17)
(5.76811 -1.30883 0)
(5.80852 -1.4528 0)
(5.61792 -0.969563 0)
(5.57146 -0.824002 -1.96313e-17)
(5.55285 -1.03667 0)
(9.07672 0.197355 8.79743e-18)
(6.85558 -2.07767 1.1594e-17)
(9.02866 0.106415 -4.29044e-19)
(5.95581 -2.17693 3.93363e-18)
(5.95932 -2.02689 9.69759e-18)
(8.60217 -0.28635 9.65918e-18)
(8.63975 -0.326301 0)
(8.65441 -0.226703 6.00167e-18)
(8.95522 0.260094 -9.40114e-19)
(6.22207 -0.782853 0)
(6.04628 -1.06121 2.50779e-17)
(6.24995 -1.02317 3.2979e-17)
(6.07833 -0.810553 3.51728e-19)
(8.98814 0.0854146 0)
(8.99695 0.064853 -8.39633e-19)
(8.80127 -0.278602 0)
(8.8548 -0.192085 7.55331e-18)
(5.61918 -1.67143 -1.84377e-17)
(9.25713 0.270202 2.88531e-17)
(9.08102 0.192979 1.04052e-17)
(5.95331 -0.583247 0)
(5.78464 -0.822382 1.40866e-17)
(5.78715 -0.677991 0)
(6.01118 -0.789968 0)
(9.03232 0.142423 5.06013e-19)
(9.0324 0.15448 0)
(8.9109 0.0307218 0)
(8.88886 0.0355201 0)
(6.51937 -2.17052 -4.73961e-18)
(8.72688 -0.306513 0)
(8.77411 -0.202681 1.77686e-17)
(5.7286 -1.10182 0)
(5.77679 -0.905497 -7.39687e-18)
(5.70144 -0.973329 0)
(5.83356 -1.07545 -8.28957e-18)
(6.22962 -1.94862 6.17154e-18)
(6.27051 -1.73917 0)
(6.07716 -1.95764 -6.92705e-18)
(7.17589 -0.437165 7.08386e-18)
(6.80065 -0.542383 0)
(6.97284 -0.359939 0)
(8.98534 0.101038 5.70582e-18)
(8.97625 0.115521 -8.73608e-18)
(9.9386 -0.0626346 -1.11111e-17)
(9.24022 -0.0716153 -1.55115e-18)
(6.26185 -2.18954 0)
(6.39248 -1.98431 -9.3578e-18)
(6.27482 -2.02771 0)
(6.41116 -2.15709 1.375e-18)
(6.59513 -3.21188 -7.88625e-18)
(9.0376 -0.0307239 1.0515e-19)
(9.03155 0.004468 4.86221e-18)
(9.06899 -0.0154434 0)
(9.09817 -0.122076 6.3829e-19)
(9.33712 -0.0912606 0)
(8.98222 -0.148728 1.24024e-19)
(9.29046 -0.098474 1.07703e-18)
(9.11231 -0.113562 -7.11313e-19)
(9.14712 -0.129819 -6.91359e-19)
(8.61573 -0.320187 0)
(8.3874 -0.281378 1.61657e-17)
(10.0677 0.140265 6.86807e-17)
(8.7829 0.0169437 0)
(9.67181 0.136437 0)
(9.06822 0.0536012 0)
(9.18464 0.197648 8.92584e-18)
(9.1917 0.162309 -1.40659e-20)
(5.93823 -2.52643 0)
(5.90148 -2.44724 -8.49973e-18)
(5.94315 -2.5835 0)
(5.89465 -1.86185 2.69827e-18)
(5.84019 -2.02739 0)
(5.82172 -1.92472 0)
(5.92808 -1.99986 -1.29035e-17)
(6.63955 -1.29039 -3.77586e-19)
(3.62295 -0.781417 7.58434e-19)
(9.08967 -0.130098 1.56797e-17)
(8.9717 0.0342072 0)
(8.97195 -0.069855 1.25049e-18)
(9.0264 0.133024 -3.67961e-19)
(9.25528 0.304033 -2.84464e-17)
(9.34967 0.402075 -2.47181e-17)
(9.29198 0.374621 1.31563e-18)
(9.3159 0.282808 0)
(9.37395 0.346432 2.55451e-17)
(9.12768 0.194403 -1.99838e-18)
(9.03362 0.105263 -1.84922e-18)
(9.05567 0.124626 -1.45754e-17)
(9.0327 0.126312 1.62812e-17)
(9.06701 0.179085 -1.96299e-17)
(9.0223 -0.0438837 1.84677e-17)
(9.01737 -0.0864638 7.26255e-18)
(8.69285 -0.234011 -2.13869e-17)
(8.68181 -0.292998 6.16878e-18)
(7.47668 -0.647003 4.01747e-17)
(8.48137 -0.0122338 1.35644e-18)
(8.84476 0.088879 2.49414e-18)
(8.86307 0.107598 0)
(8.84996 0.0609709 5.787e-18)
(8.37759 0.0669087 1.38602e-17)
(8.29167 0.0280552 2.99512e-17)
(9.06399 -0.150764 1.35449e-17)
(9.07515 -0.0956298 0)
(8.71822 0.147821 -1.82365e-17)
(8.9683 0.0560878 2.39622e-16)
(8.77465 -0.219066 0)
(8.74784 -0.271423 0)
(8.95102 -0.153993 0)
(9.01124 -0.150855 -2.4084e-18)
(8.93532 -0.165063 5.48701e-18)
(8.93399 0.0268229 0)
(8.61821 -0.0297182 5.5235e-17)
(8.72228 0.0116913 2.60057e-17)
(6.50692 -1.08268 2.46582e-17)
(6.58929 -0.896153 0)
(4.90613 -0.623618 7.45233e-18)
(8.87223 0.106405 -1.35605e-19)
(8.88066 0.0975628 4.31774e-18)
(8.8682 0.076519 0)
(8.79576 0.0328237 -2.13219e-17)
(8.72319 0.0598423 -1.70098e-17)
(8.96249 0.114734 -6.74483e-18)
(8.94786 0.135988 0)
(9.48613 0.0660059 1.24855e-18)
(10.1479 -0.0238758 6.40282e-17)
(7.15709 -1.22453 0)
(7.2382 -1.03579 2.48319e-17)
(8.58707 -0.184003 5.03905e-18)
(8.64291 0.0469446 -1.46641e-17)
(8.92556 0.0994964 5.40714e-18)
(8.93805 0.0791993 0)
(9.11239 -0.150402 -4.66935e-18)
(7.14946 -0.71952 -6.315e-18)
(6.88799 -0.782877 0)
(9.51568 0.0783485 -2.43495e-17)
(9.06096 0.0640047 0)
(9.09481 0.190733 0)
(8.95798 -0.137183 0)
(9.17995 -0.114713 1.24458e-17)
(9.0066 -0.149801 4.67657e-18)
(8.62317 0.0870672 -2.47835e-17)
(8.37369 -0.422081 1.57474e-17)
(7.50842 -0.443698 0)
(7.55512 -0.0689628 5.25967e-17)
(7.37205 -0.145566 -5.81094e-17)
(5.7649 -1.90746 0)
(8.83789 -0.195569 -7.28855e-18)
(5.84211 -2.12572 -6.17503e-18)
(8.69579 0.0877351 0)
(8.86297 -0.180256 -1.33884e-19)
(9.2139 0.0562391 5.97901e-18)
(10.0714 -0.205049 1.16048e-17)
(8.85677 0.123761 6.57684e-18)
(8.84584 0.12991 -6.49052e-18)
(10.0688 0.0594333 1.87486e-17)
(9.14647 -0.170772 4.1639e-17)
(9.12495 -0.151637 0)
(3.43264 0.255323 4.68357e-17)
(3.12098 0.0988349 4.61845e-17)
(9.71025 0.0977791 4.43589e-17)
(10.2746 0.137989 -6.253e-17)
(9.02784 0.093207 3.52835e-18)
(9.56409 -0.0387165 0)
(8.64729 0.147308 8.27715e-18)
(9.14698 -0.081733 8.04445e-17)
(10.4502 -0.00155679 0)
(8.69303 0.213053 0)
(9.91562 0.297554 0)
(10.4386 0.00132458 -4.06183e-17)
(8.55379 0.0931895 1.67484e-17)
(8.60863 0.135869 0)
(9.05213 0.154139 9.68736e-18)
(9.16415 0.0869682 -1.09595e-17)
(9.03033 0.103126 0)
(9.05117 0.130596 0)
(10.2024 0.0833552 3.16386e-18)
(9.68567 0.0997365 5.91941e-17)
(6.62604 -2.03402 4.56526e-18)
(6.57786 -1.82891 8.93221e-18)
(6.45137 -1.84847 4.56019e-18)
(9.00194 0.0451597 -1.69592e-18)
(9.09709 0.0284556 7.07029e-18)
(9.22073 0.0272511 0)
(9.04643 -0.0161258 2.97202e-17)
(8.87139 0.126725 -6.27813e-18)
(9.28809 -0.0276198 6.76614e-18)
(10.9905 0.0963095 -3.08979e-17)
(8.8 0.0707304 1.56252e-17)
(6.15605 -2.49949 1.26035e-17)
(9.00715 0.00588694 0)
(9.00255 8.68845e-05 -1.85627e-18)
(8.99324 0.153119 -1.4609e-18)
(9.02345 0.154154 2.04854e-18)
(6.68997 -3.03766 -5.23301e-18)
(6.59818 -2.83284 5.34299e-18)
(6.44246 -2.85882 1.17654e-17)
(8.63236 0.102025 2.4797e-18)
(8.60088 0.0987948 2.93494e-18)
(8.56844 0.0750764 0)
(9.14922 -0.112687 -4.80833e-17)
(9.14175 -0.136366 -1.59889e-17)
(9.13732 -0.142729 -1.96153e-19)
(9.17039 -0.133319 1.76769e-17)
(6.04836 -2.00476 -4.78866e-18)
(6.23332 -2.24707 0)
(6.12156 -2.2543 8.04497e-18)
(6.08167 -2.15128 2.07547e-18)
(10.1252 0.080575 -2.74395e-18)
(10.3155 0.163647 -4.96749e-18)
(10.4527 0.0571705 3.64152e-17)
(6.04877 -1.76537 0)
(6.16422 -1.62413 0)
(8.67843 0.087531 3.41632e-17)
(8.70087 0.0584854 8.59707e-18)
(9.04137 0.0863272 -4.81043e-18)
(9.04042 0.0982093 6.09261e-18)
(6.43418 -1.50742 9.24228e-18)
(6.39339 -1.68367 -9.46979e-18)
(9.94529 0.0319098 0)
(10.1968 -0.0181621 1.08074e-17)
(8.89236 0.0473091 -1.12314e-19)
(8.9191 0.0579206 -7.72608e-19)
(8.88649 0.0625741 4.21223e-18)
(8.90168 0.0676721 -3.63079e-18)
(9.14531 0.234288 -1.33048e-17)
(9.17173 0.240334 1.23573e-17)
(9.21226 0.289884 0)
(7.24227 -4.16481 1.74865e-18)
(5.19939 -0.451176 4.64531e-18)
(8.93098 0.289211 -2.93543e-20)
(8.7954 0.209754 -1.92158e-17)
(8.94307 -0.265221 4.79718e-19)
(4.7573 -3.80687 0)
(7.29044 -0.0567525 -6.39127e-18)
(5.44388 -1.00819 -2.2935e-17)
(5.44279 -0.78743 1.05258e-17)
(9.03226 -0.324915 -5.3443e-19)
(8.98073 -0.2888 -3.23763e-18)
(5.76615 -0.0872935 5.88268e-18)
(5.80051 -0.294698 0)
(5.59608 -0.155821 -1.90576e-17)
(5.22024 -0.272759 -3.45498e-18)
(5.1875 -0.352859 0)
(8.42015 -0.609842 1.47742e-17)
(8.98249 0.314128 -1.22785e-18)
(5.24529 -0.525759 -3.04342e-20)
(3.7415 -2.68084 0)
(5.39137 -0.858762 -1.04526e-17)
(5.40198 -0.950516 1.06916e-17)
(8.96823 -0.427804 -6.36582e-19)
(8.84837 -0.334132 2.35197e-18)
(5.42724 -0.657343 -1.0373e-17)
(7.20109 -0.0279599 3.8243e-17)
(8.69032 -0.697178 -5.30975e-18)
(7.35835 -1.58062 -1.69424e-18)
(6.24024 -3.05037 0)
(6.71131 0.643401 1.65726e-17)
(5.6686 -0.403527 0)
(5.67295 -0.518557 0)
(5.56074 -0.314007 2.26121e-18)
(5.38861 -1.06572 -5.67865e-18)
(5.41095 -1.1237 -6.38193e-18)
(8.88448 -0.497441 -4.74932e-19)
(8.77528 -0.369425 0)
(6.36995 -0.047036 3.74851e-17)
(6.12522 0.073796 0)
(6.12059 -0.0714267 -7.8838e-18)
(6.37141 0.168593 1.1016e-17)
(8.83174 0.165814 -2.68178e-18)
(8.86297 0.15183 1.38555e-17)
(8.84563 0.139659 -9.04631e-18)
(6.09971 -3.12463 1.10087e-17)
(8.92538 0.13509 0)
(8.88079 0.143714 -1.68835e-18)
(8.92545 0.154914 0)
(8.88228 0.123935 2.10984e-18)
(8.88391 -0.147981 -2.35174e-18)
(8.90084 -0.161985 2.40731e-18)
(8.89241 -0.145349 2.38779e-18)
(8.88492 -0.170766 1.5207e-18)
(9.1688 -0.14934 2.07748e-17)
(9.20613 -0.18795 0)
(6.74303 -0.106749 1.06608e-17)
(7.01239 -0.077257 -9.48264e-18)
(6.95568 -0.199658 -8.55475e-18)
(6.84941 0.126178 -9.07966e-18)
(6.31333 -3.10526 0)
(5.89892 -2.31646 -2.0215e-18)
(5.94666 -2.19323 -8.73673e-19)
(5.88965 -2.18808 7.95091e-18)
(5.97609 -2.31388 -4.84574e-18)
(8.85583 -0.195978 3.41297e-19)
(8.88324 -0.191525 0)
(8.86819 -0.221693 0)
(8.52787 0.0843012 -2.549e-17)
(8.49913 0.0594406 0)
(8.52238 0.0838073 1.54397e-17)
(8.52945 0.0395125 0)
(6.20256 -2.8911 -2.9328e-18)
(6.23869 -2.77275 5.02316e-18)
(8.80059 0.174969 1.54106e-19)
(8.80785 0.163695 -4.0561e-18)
(5.5091 -1.554 -1.21892e-17)
(6.97294 -2.89353 -7.68099e-18)
(8.8846 -0.172473 2.2788e-19)
(8.8887 -0.186035 0)
(8.90095 -0.178403 0)
(8.87409 -0.174168 0)
(8.6041 0.176869 1.92721e-17)
(6.65262 -2.45162 0)
(6.68032 -2.67963 -1.15881e-17)
(6.32901 0.700408 5.74719e-19)
(6.09711 0.712842 -9.04295e-18)
(5.66193 -1.43776 1.23618e-17)
(8.85432 -0.261861 0)
(8.81646 -0.218933 0)
(8.85272 -0.231341 0)
(8.81279 -0.26226 0)
(8.7593 -0.416132 -1.35445e-18)
(8.80725 -0.5022 1.82524e-18)
(8.86211 0.35731 -1.22317e-17)
(8.45659 -0.0481992 0)
(8.44317 -0.128398 0)
(8.44377 -0.0914796 -4.68221e-17)
(8.47232 -0.114265 -5.47417e-17)
(9.71134 -0.0259738 -1.01356e-16)
(9.23018 -0.197653 -4.48962e-17)
(3.6607 -1.47196 -1.57405e-17)
(8.39168 0.257717 0)
(5.97443 -3.31201 -4.93099e-18)
(5.52346 -1.18231 7.90606e-18)
(5.51854 -1.22439 7.15655e-18)
(5.51451 -1.58582 -1.19894e-17)
(5.75884 -2.48553 1.01633e-17)
(9.00385 -0.199286 2.51557e-18)
(3.33408 -1.68381 0)
(5.4858 -1.62467 0)
(9.38082 0.468729 2.75486e-17)
(6.66527 -5.10696 -2.99745e-18)
(7.83126 -0.0652337 1.2745e-16)
(9.27841 -0.039805 2.67825e-17)
(7.48928 -1.34767 1.59416e-18)
(9.24305 0.692764 0)
(5.78126 -2.21551 -1.2175e-17)
(5.80628 -2.335 -1.52163e-19)
(3.44988 -1.239 -1.20445e-17)
(9.00034 0.285961 1.02128e-18)
(8.98801 0.262797 8.11008e-19)
(5.4852 -1.36239 0)
(10.4026 -0.197363 0)
(9.75486 -0.0775406 8.93053e-17)
(9.02739 0.292993 3.55486e-20)
(9.25592 -0.123233 -7.07435e-17)
(7.03598 -3.74036 2.64881e-18)
(7.09222 -3.9642 -3.34056e-19)
(7.76021 -1.04082 0)
(8.89945 -0.279386 -5.3129e-19)
(8.22783 0.0646353 -2.62136e-17)
(9.3123 0.0590805 -1.77605e-17)
(9.04006 0.273938 -3.3112e-21)
(9.06898 0.268063 7.12245e-18)
(5.51647 -1.11533 1.44602e-17)
(6.70145 0.363655 -3.01513e-17)
(10.2401 0.064762 5.12414e-17)
(10.2487 -0.16611 0)
(9.36666 0.0159437 0)
(9.30939 0.692562 -4.28112e-18)
(8.94356 -0.243117 0)
(8.67938 -0.408647 0)
(8.77922 -0.571981 0)
(8.69782 -0.57912 3.57053e-18)
(8.65397 -0.473379 0)
(8.41309 -0.059305 1.65202e-17)
(8.34584 -0.111795 -2.06542e-17)
(5.51563 -1.32474 0)
(6.40269 -3.03568 1.00178e-17)
(6.47001 -3.19596 9.10045e-18)
(9.61124 -0.111406 -8.75218e-17)
(5.66053 -1.60216 2.36035e-17)
(5.64304 -1.50244 -1.7494e-17)
(8.94207 0.310988 0)
(6.79966 -3.43242 -3.88821e-18)
(6.85927 -3.65398 0)
(7.802 -0.441633 3.11485e-17)
(8.46596 0.123824 0)
(9.08291 -0.150653 -1.64008e-17)
(9.0027 -0.160008 6.63126e-18)
(5.56033 -3.75462 0)
(8.26937 -0.0190902 -2.87334e-17)
(7.3415 -2.50931 0)
(6.59927 -3.78183 0)
(6.57407 -3.53075 -5.46695e-18)
(8.16521 -0.361263 -3.90292e-17)
(8.21811 -0.263686 3.10019e-17)
(8.83893 -0.369568 0)
(8.89947 -0.427884 3.02768e-19)
(9.44886 -0.0133927 7.10119e-17)
(9.33026 -0.0185948 -5.04243e-17)
(9.27391 -0.226652 9.46926e-18)
(7.87781 -0.840408 1.48211e-17)
(7.87351 -0.679202 -1.27929e-17)
(9.45149 0.521902 -2.74102e-17)
(9.67298 -0.114576 0)
(10.1481 -0.0801377 1.89246e-17)
(9.69256 -0.0840396 0)
(8.6676 -0.0867529 4.04833e-17)
(8.53592 -0.116981 5.59158e-17)
(9.09423 0.428021 -3.89229e-18)
(8.90241 -0.31857 -2.79611e-18)
(9.49654 0.0560366 0)
(9.47645 0.0851394 1.45488e-16)
(9.28603 0.12322 0)
(3.45508 -0.515095 1.25775e-17)
(7.16868 -0.073634 -1.32489e-17)
(8.76412 -0.114904 4.81902e-18)
(8.88254 -0.114165 0)
(5.93759 -2.73808 9.18955e-18)
(8.90795 -0.229924 -1.16999e-19)
(8.91239 -0.208639 1.15413e-19)
(8.00316 -0.124323 4.89784e-18)
(5.80203 -2.74217 5.55976e-18)
(8.76045 0.215904 1.07996e-17)
(8.34469 -0.15214 0)
(8.3456 -0.170419 0)
(8.17685 -0.221272 2.51299e-18)
(6.80069 -2.30744 0)
(6.92916 -2.52492 0)
(6.89297 -2.70073 0)
(6.28973 -3.50138 5.12299e-18)
(8.88759 0.279727 2.67421e-20)
(8.09721 -0.0997715 2.61018e-19)
(5.54741 -1.28521 -7.61369e-18)
(8.64802 -0.126844 1.59328e-18)
(8.61108 -0.100268 -1.47063e-17)
(9.37251 -0.131794 0)
(7.60613 -0.721308 -4.16514e-17)
(7.76102 -0.613957 9.43824e-19)
(8.44393 -0.214151 -3.40161e-17)
(5.91646 -3.23797 -1.11275e-17)
(7.91131 -0.56602 5.46114e-17)
(8.10049 -0.414739 0)
(6.44876 -3.48817 5.58395e-18)
(6.41535 -3.32457 -2.5857e-20)
(6.31717 -3.27681 0)
(9.06817 0.188985 -8.027e-18)
(9.06062 0.162394 0)
(9.04742 0.148118 0)
(8.63503 -0.156516 7.67308e-19)
(9.25537 -0.10354 6.05125e-17)
(9.31449 -0.125641 -1.1466e-17)
(8.42795 0.014345 8.40482e-18)
(8.46856 0.0422755 0)
(8.47283 0.0332096 0)
(8.7295 0.186659 6.21172e-18)
(8.70315 0.183472 -1.93965e-17)
(8.9974 -0.0242223 -1.35113e-17)
(8.42689 -0.368911 5.28667e-17)
(8.36039 -0.502396 1.28224e-17)
(6.2669 -3.33004 2.01055e-18)
(3.92148 -0.718941 -5.42271e-18)
(7.11989 -2.4561 0)
(8.53191 -0.583703 6.02175e-18)
(8.81789 0.230337 2.49646e-18)
(8.93276 0.23286 -1.66679e-18)
(5.50027 -1.42168 0)
(7.92528 -0.0847516 -3.93321e-18)
(7.9035 -0.113638 -3.5099e-18)
(6.70365 -4.20923 1.23729e-18)
(5.88964 -2.54373 1.03731e-17)
(9.59702 -0.0858693 -5.9917e-17)
(10.3278 -0.111569 1.73512e-17)
(5.57676 -1.63755 9.02432e-18)
(5.34789 -0.81689 1.73047e-17)
(5.38012 -0.998613 0)
(6.90814 0.275583 2.16258e-17)
(9.3008 -0.133013 2.89122e-17)
(5.44837 -1.09841 5.1436e-20)
(5.48878 -1.17976 2.31014e-17)
(5.48976 -1.2437 -1.61218e-17)
(8.37298 0.176319 8.28009e-18)
(8.41244 0.134124 0)
(5.55351 -1.56229 0)
(5.54117 -1.49133 0)
(8.54977 -0.295094 -3.95141e-17)
(8.52588 -0.369633 -3.56934e-17)
(8.57477 -0.470704 -3.47242e-18)
(9.19362 0.138142 -3.04807e-16)
(10.2541 0.189431 0)
(5.78088 -2.37654 1.13611e-17)
(6.10003 -2.86578 3.41206e-18)
(6.16179 -2.61306 -1.36597e-17)
(6.06812 -2.63433 -5.67333e-18)
(6.05241 -2.72682 0)
(5.25565 -0.611683 -1.01128e-17)
(5.32955 -0.721516 1.30529e-17)
(5.29024 -0.70408 4.91284e-18)
(6.48273 -3.85926 1.09105e-17)
(8.27707 -0.0493711 -4.86867e-17)
(8.53009 -0.170185 -6.04209e-18)
(8.5101 -0.218396 4.46616e-17)
(9.43304 -0.0681158 -2.65685e-17)
(9.88738 -0.0896175 3.32753e-17)
(10.2382 -0.0611711 -6.2304e-17)
(9.0426 0.131656 4.11502e-18)
(9.03914 0.10831 -8.49519e-18)
(8.74347 0.150744 1.82748e-17)
(8.74433 0.11439 -1.33433e-17)
(8.75417 0.12802 4.15717e-18)
(5.95313 -1.73465 8.61991e-18)
(5.92828 -1.56457 -1.89201e-17)
(10.1102 -0.0632313 2.709e-17)
(10.4909 -0.161998 -5.12285e-17)
(9.13447 0.487093 -1.95881e-18)
(7.09156 -3.03698 7.5628e-18)
(7.15371 -3.57224 6.89404e-18)
(7.06545 -3.29508 -3.07653e-19)
(7.69243 -0.181205 0)
(7.82607 -0.118203 6.50367e-18)
(7.67883 -0.361907 -2.8823e-17)
(9.52141 0.125167 -4.00213e-17)
(9.25776 0.170839 5.50392e-18)
(9.01585 0.18395 2.63191e-19)
(9.1485 0.253995 0)
(8.95403 0.171598 2.95608e-18)
(8.99262 0.174547 -4.13927e-18)
(8.93523 0.190978 4.74729e-18)
(8.95247 0.211374 -3.81474e-18)
(9.33742 0.0576206 -2.20076e-17)
(8.83026 0.0770069 1.28092e-17)
(6.16772 -3.17039 0)
(6.19154 -3.28097 0)
(8.03698 -0.410586 -4.83146e-17)
(8.00596 -0.591026 0)
(9.07373 0.172684 0)
(9.06655 0.13525 1.85117e-17)
(8.92484 -0.176416 0)
(7.08813 -5.154 1.93261e-18)
(9.05301 -0.101274 -1.68051e-18)
(6.37836 -2.71786 -1.2075e-17)
(6.38929 -2.50529 0)
(9.21699 -0.216037 2.2535e-17)
(9.25379 -0.263673 -1.99519e-17)
(9.28522 -0.276619 8.91188e-18)
(5.25238 -0.799609 0)
(6.0652 -2.97688 -3.51095e-18)
(5.95532 -2.83461 -1.35797e-17)
(5.99298 -2.96483 -4.02052e-18)
(8.9134 -0.194063 0)
(9.11629 -0.275654 -3.8313e-19)
(9.00404 -0.32083 3.82418e-19)
(6.87542 -1.17795 -3.09664e-17)
(6.82787 -0.918484 -2.41354e-18)
(8.85462 0.192251 3.03847e-18)
(8.88096 0.186545 -5.22693e-18)
(6.46648 0.405782 2.12438e-17)
(6.34882 0.324146 -1.95867e-17)
(6.03249 0.535767 0)
(7.09672 -1.69536 1.06185e-17)
(7.19587 -2.07088 -7.89473e-18)
(7.06578 -1.94129 9.05041e-18)
(9.04269 0.067386 2.2958e-18)
(9.05383 0.0848977 -2.37904e-18)
(8.03305 -0.221666 -2.30835e-17)
(7.8854 -0.250636 -1.41118e-16)
(8.0826 -0.148406 1.71814e-16)
(5.48873 -0.972739 7.647e-18)
(5.49695 -0.850996 -1.36287e-17)
(8.23724 -0.0856138 6.55471e-19)
(8.26703 -0.0819417 8.11227e-18)
(8.03584 -0.109619 -6.10424e-18)
(8.60485 -0.109305 -1.43457e-17)
(9.01847 0.622006 -1.00796e-18)
(5.05823 -0.161531 0)
(8.85854 0.642863 -4.25614e-18)
(8.75068 0.384184 1.07499e-17)
(4.99906 -0.0322779 -1.09587e-17)
(8.64085 0.371843 1.28993e-17)
(9.05779 -0.415164 4.59309e-18)
(8.83972 0.404456 1.19232e-17)
(8.79967 0.414685 -1.49028e-17)
(9.02518 0.704958 -7.14366e-20)
(8.71317 0.416833 -1.53696e-17)
(8.63211 0.498464 9.4036e-18)
(8.66144 0.409337 2.64665e-17)
(9.01857 -0.494807 0)
(4.96989 0.216421 -1.71659e-17)
(5.00405 0.0588273 9.07366e-18)
(8.99958 -0.281317 3.26926e-18)
(9.0208 -0.304026 1.58737e-18)
(9.13727 0.534283 4.47471e-18)
(7.9205 0.620611 0)
(5.03135 0.561542 6.57234e-18)
(5.03377 0.256174 0)
(5.13826 0.273028 0)
(5.10892 0.20277 0)
(5.05489 0.399457 0)
(4.87946 0.269796 1.57488e-17)
(4.85054 0.159244 -6.3679e-18)
(8.94484 -0.578372 -6.14979e-20)
(10.1563 1.30472 0)
(8.84235 0.335175 1.36053e-17)
(8.81527 0.260109 -1.31282e-17)
(8.85544 0.287862 -2.80057e-18)
(8.95538 -0.871236 1.14145e-18)
(8.84491 -0.675497 -2.56551e-18)
(8.75095 0.344867 -1.01454e-17)
(8.75327 0.254864 -7.82606e-18)
(9.0184 -0.380718 1.87127e-18)
(8.95324 -0.343016 -9.88908e-19)
(8.97692 -0.392146 1.61511e-19)
(5.12312 0.101135 1.38456e-17)
(5.19002 -0.0116358 -1.48699e-17)
(5.07424 -0.00199785 1.47016e-19)
(8.6638 0.319963 2.71777e-19)
(8.71932 0.258417 -9.56264e-18)
(8.70824 0.309665 2.82791e-17)
(5.57581 0.564242 -1.35162e-17)
(5.1563 0.717511 9.60186e-18)
(5.33889 0.508376 -1.8364e-17)
(5.38264 -0.994072 1.88834e-17)
(5.70289 0.427815 2.78221e-17)
(5.91027 0.418168 1.01397e-17)
(5.09277 -0.2043 1.50443e-18)
(9.1121 0.405167 1.41317e-17)
(9.10889 0.351108 2.43171e-18)
(8.96515 -0.232861 0)
(8.53988 0.192678 2.07648e-17)
(8.54654 0.0930459 0)
(8.57215 0.167876 0)
(8.50025 0.141973 -1.36666e-17)
(8.32186 -0.301318 -5.57909e-17)
(8.3986 -0.224411 3.65488e-17)
(8.35292 -0.168596 3.38822e-17)
(8.39274 -0.288046 -3.18751e-17)
(8.92775 -0.157345 0)
(8.97386 -0.131965 -1.05745e-17)
(8.9322 -0.148441 0)
(8.98725 -0.147815 -5.94544e-18)
(5.95118 0.809963 8.15969e-19)
(8.99187 0.217368 -1.18725e-18)
(9.01564 0.201755 1.09893e-18)
(9.05064 0.349784 6.33533e-19)
(9.09712 0.217656 0)
(9.11816 0.241153 0)
(6.28858 -0.462583 1.55908e-17)
(6.51042 -0.299598 0)
(5.51491 -0.0594118 1.80261e-17)
(5.51382 0.14743 0)
(5.82211 -2.52768 -1.31192e-18)
(5.78132 -2.62966 8.74817e-19)
(5.79407 -2.62861 3.43938e-20)
(5.80553 -2.72298 -3.35837e-20)
(3.28082 -0.640534 0)
(4.87925 -0.989371 -7.47557e-19)
(3.54695 -0.874153 -1.50121e-17)
(3.81234 -2.12501 -1.79655e-17)
(8.01681 0.42116 1.08489e-17)
(7.91395 0.535354 -1.08016e-17)
(8.47239 -0.126158 -6.18881e-18)
(5.739 -2.70632 -3.40642e-18)
(5.63607 -2.92285 0)
(9.03037 0.325758 1.87725e-21)
(3.83526 -2.41798 0)
(5.29997 -3.02562 7.76722e-18)
(3.5433 -2.00316 -2.49574e-17)
(5.25725 -2.86248 -1.86565e-18)
(9.99879 -0.907534 0)
(9.58933 -0.86179 1.32102e-17)
(5.78596 -2.57717 0)
(5.74584 -3.1028 -5.65554e-18)
(5.74155 -3.01673 0)
(6.01419 -3.63498 1.57589e-17)
(9.46324 0.898627 8.48819e-18)
(9.55371 0.926291 0)
(5.81201 -3.49433 1.22139e-17)
(5.9428 -3.24569 0)
(8.02467 -0.138178 1.25929e-18)
(3.63778 -2.31685 -2.80356e-19)
(8.25829 -0.142499 7.20233e-18)
(8.20614 -0.147236 1.16668e-17)
(9.9426 0.968687 2.42375e-17)
(9.71084 -0.0426108 -1.92649e-17)
(9.0673 -0.465599 -1.20817e-18)
(8.55497 0.358151 0)
(5.84866 -3.22136 1.33933e-17)
(5.85209 -3.22848 0)
(9.32315 -0.130596 0)
(9.39272 -0.163752 0)
(9.07018 -0.34927 2.37327e-18)
(5.12109 -2.87645 0)
(5.10893 -0.182003 -1.29623e-18)
(5.15181 -0.290818 0)
(5.80044 -2.67628 -5.0249e-20)
(5.48555 -1.23462 1.73335e-17)
(5.55706 -1.30202 -2.39668e-17)
(5.54745 -1.2083 -8.2671e-18)
(8.93455 -0.659975 0)
(9.00392 -0.769137 -6.68299e-18)
(5.27557 -2.93185 3.96353e-18)
(3.56392 -1.88362 -2.23221e-17)
(4.95926 -2.46011 3.05617e-18)
(9.47889 0.0539621 2.47682e-17)
(8.58522 0.394634 0)
(5.92155 -3.20672 1.80397e-17)